; rebuilt from a .tpr dump by tpr2top.py (explicit parameters; see header of that script)
[ defaults ]
; nbfunc comb-rule gen-pairs fudgeLJ fudgeQQ
1 1 no 1.0 1.0

[ atomtypes ]
; name mass charge ptype c6 c12
CC3161     12.01100 0.0 A 1.09681045e-03 2.24626751e-06
HCA1        1.00800 0.0 A 1.39522090e-04 2.58476920e-08
OC311      15.99940 0.0 A 3.11026420e-03 3.00895385e-06
HT          1.00800 0.0 A 3.15396931e-09 1.29212775e-17
OC3C61     15.99940 0.0 A 1.08070031e-03 6.97844825e-07
CC321      12.01100 0.0 A 1.97772519e-03 4.17342062e-06
HCA2        1.00800 0.0 A 1.08517183e-04 2.01037604e-08
OT         15.99940 0.0 A 2.48954049e-03 2.43476779e-06

[ nonbond_params ]
CC3161   CC3161   1 1.09681045e-03 2.24626751e-06
CC3161   HCA1     1 4.40840580e-04 3.06006200e-07
CC3161   OC311    1 1.86874531e-03 2.66139818e-06
CC3161   HT       1 3.89018351e-05 2.35686426e-09
CC3161   OC3C61   1 1.11931888e-03 1.32336902e-06
CC3161   CC321    1 1.47284474e-03 3.06191600e-06
CC3161   HCA2     1 3.88784858e-04 2.69872118e-07
CC3161   OT       1 1.67134008e-03 2.39242513e-06
HCA1     HCA1     1 1.39522090e-04 2.58476920e-08
HCA1     OC311    1 6.97206240e-04 3.12392729e-07
HCA1     HT       1 5.58290640e-06 4.09339715e-11
HCA1     OC3C61   1 4.01102036e-04 1.43301875e-07
HCA1     CC321    1 5.93732402e-04 4.19594272e-07
HCA1     HCA2     1 1.23046921e-04 2.27955219e-08
HCA1     OT       1 6.24232343e-04 2.81429777e-07
OC311    OC311    1 3.11026420e-03 3.00895385e-06
OC311    HT       1 4.87784528e-05 1.51238289e-09
OC311    OC3C61   1 1.83962565e-03 1.45896058e-06
OC311    CC321    1 2.51177675e-03 3.63456775e-06
OC311    HCA2     1 6.14878081e-04 2.75504476e-07
OC311    OT       1 2.78265448e-03 2.70669079e-06
HT       HT       1 3.15396931e-09 1.29212775e-17
HT       OC3C61   1 2.46214313e-05 5.34067290e-10
HT       CC321    1 5.28660348e-05 3.29024985e-09
HT       HCA2     1 4.92366098e-06 3.61003727e-11
HT       OT       1 4.38244861e-05 1.37195055e-09
OC3C61   OC3C61   1 1.08070031e-03 6.97844825e-07
OC3C61   CC321    1 1.50522788e-03 1.80908432e-06
OC3C61   HCA2     1 3.53738782e-04 1.26380371e-07
OC3C61   OT       1 1.64615584e-03 1.31288175e-06
CC321    CC321    1 1.97772519e-03 4.17342062e-06
CC321    HCA2     1 5.23622730e-04 3.70047360e-07
CC321    OT       1 2.24641454e-03 3.26715349e-06
HCA2     HCA2     1 1.08517183e-04 2.01037604e-08
HCA2     OT       1 5.50521188e-04 2.48197750e-07
OT       OT       1 2.48954049e-03 2.43476779e-06

[ moleculetype ]
CARB 3

[ atoms ]
     1 CC3161      1 AGLC   C1          1   0.340000   12.01100
     2 HCA1        1 AGLC   H1          2   0.090000    1.00800
     3 OC311       1 AGLC   O1          3  -0.650000   15.99940
     4 HT          1 AGLC   HO1         4   0.420000    1.00800
     5 CC3161      1 AGLC   C5          5   0.110000   12.01100
     6 HCA1        1 AGLC   H5          6   0.090000    1.00800
     7 OC3C61      1 AGLC   O5          7  -0.400000   15.99940
     8 CC3161      1 AGLC   C2          8   0.140000   12.01100
     9 HCA1        1 AGLC   H2          9   0.090000    1.00800
    10 OC311       1 AGLC   O2         10  -0.650000   15.99940
    11 HT          1 AGLC   HO2        11   0.420000    1.00800
    12 CC3161      1 AGLC   C3         12   0.140000   12.01100
    13 HCA1        1 AGLC   H3         13   0.090000    1.00800
    14 OC311       1 AGLC   O3         14  -0.650000   15.99940
    15 HT          1 AGLC   HO3        15   0.420000    1.00800
    16 CC3161      1 AGLC   C4         16   0.090000   12.01100
    17 HCA1        1 AGLC   H4         17   0.090000    1.00800
    18 OC3C61      1 AGLC   O4         18  -0.360000   15.99940
    19 CC321       1 AGLC   C6         19   0.050000   12.01100
    20 HCA2        1 AGLC   H61        20   0.090000    1.00800
    21 HCA2        1 AGLC   H62        21   0.090000    1.00800
    22 OC311       1 AGLC   O6         22  -0.650000   15.99940
    23 HT          1 AGLC   HO6        23   0.420000    1.00800
    24 CC3161      2 AGLC   C1         24   0.290000   12.01100
    25 HCA1        2 AGLC   H1         25   0.090000    1.00800
    26 CC3161      2 AGLC   C5         26   0.110000   12.01100
    27 HCA1        2 AGLC   H5         27   0.090000    1.00800
    28 OC3C61      2 AGLC   O5         28  -0.400000   15.99940
    29 CC3161      2 AGLC   C2         29   0.140000   12.01100
    30 HCA1        2 AGLC   H2         30   0.090000    1.00800
    31 OC311       2 AGLC   O2         31  -0.650000   15.99940
    32 HT          2 AGLC   HO2        32   0.420000    1.00800
    33 CC3161      2 AGLC   C3         33   0.140000   12.01100
    34 HCA1        2 AGLC   H3         34   0.090000    1.00800
    35 OC311       2 AGLC   O3         35  -0.650000   15.99940
    36 HT          2 AGLC   HO3        36   0.420000    1.00800
    37 CC3161      2 AGLC   C4         37   0.090000   12.01100
    38 HCA1        2 AGLC   H4         38   0.090000    1.00800
    39 OC3C61      2 AGLC   O4         39  -0.360000   15.99940
    40 CC321       2 AGLC   C6         40   0.050000   12.01100
    41 HCA2        2 AGLC   H61        41   0.090000    1.00800
    42 HCA2        2 AGLC   H62        42   0.090000    1.00800
    43 OC311       2 AGLC   O6         43  -0.650000   15.99940
    44 HT          2 AGLC   HO6        44   0.420000    1.00800
    45 CC3161      3 AGLC   C1         45   0.290000   12.01100
    46 HCA1        3 AGLC   H1         46   0.090000    1.00800
    47 CC3161      3 AGLC   C5         47   0.110000   12.01100
    48 HCA1        3 AGLC   H5         48   0.090000    1.00800
    49 OC3C61      3 AGLC   O5         49  -0.400000   15.99940
    50 CC3161      3 AGLC   C2         50   0.140000   12.01100
    51 HCA1        3 AGLC   H2         51   0.090000    1.00800
    52 OC311       3 AGLC   O2         52  -0.650000   15.99940
    53 HT          3 AGLC   HO2        53   0.420000    1.00800
    54 CC3161      3 AGLC   C3         54   0.140000   12.01100
    55 HCA1        3 AGLC   H3         55   0.090000    1.00800
    56 OC311       3 AGLC   O3         56  -0.650000   15.99940
    57 HT          3 AGLC   HO3        57   0.420000    1.00800
    58 CC3161      3 AGLC   C4         58   0.090000   12.01100
    59 HCA1        3 AGLC   H4         59   0.090000    1.00800
    60 OC3C61      3 AGLC   O4         60  -0.360000   15.99940
    61 CC321       3 AGLC   C6         61   0.050000   12.01100
    62 HCA2        3 AGLC   H61        62   0.090000    1.00800
    63 HCA2        3 AGLC   H62        63   0.090000    1.00800
    64 OC311       3 AGLC   O6         64  -0.650000   15.99940
    65 HT          3 AGLC   HO6        65   0.420000    1.00800
    66 CC3161      4 AGLC   C1         66   0.290000   12.01100
    67 HCA1        4 AGLC   H1         67   0.090000    1.00800
    68 CC3161      4 AGLC   C5         68   0.110000   12.01100
    69 HCA1        4 AGLC   H5         69   0.090000    1.00800
    70 OC3C61      4 AGLC   O5         70  -0.400000   15.99940
    71 CC3161      4 AGLC   C2         71   0.140000   12.01100
    72 HCA1        4 AGLC   H2         72   0.090000    1.00800
    73 OC311       4 AGLC   O2         73  -0.650000   15.99940
    74 HT          4 AGLC   HO2        74   0.420000    1.00800
    75 CC3161      4 AGLC   C3         75   0.140000   12.01100
    76 HCA1        4 AGLC   H3         76   0.090000    1.00800
    77 OC311       4 AGLC   O3         77  -0.650000   15.99940
    78 HT          4 AGLC   HO3        78   0.420000    1.00800
    79 CC3161      4 AGLC   C4         79   0.090000   12.01100
    80 HCA1        4 AGLC   H4         80   0.090000    1.00800
    81 OC3C61      4 AGLC   O4         81  -0.360000   15.99940
    82 CC321       4 AGLC   C6         82   0.050000   12.01100
    83 HCA2        4 AGLC   H61        83   0.090000    1.00800
    84 HCA2        4 AGLC   H62        84   0.090000    1.00800
    85 OC311       4 AGLC   O6         85  -0.650000   15.99940
    86 HT          4 AGLC   HO6        86   0.420000    1.00800
    87 CC3161      5 AGLC   C1         87   0.290000   12.01100
    88 HCA1        5 AGLC   H1         88   0.090000    1.00800
    89 CC3161      5 AGLC   C5         89   0.110000   12.01100
    90 HCA1        5 AGLC   H5         90   0.090000    1.00800
    91 OC3C61      5 AGLC   O5         91  -0.400000   15.99940
    92 CC3161      5 AGLC   C2         92   0.140000   12.01100
    93 HCA1        5 AGLC   H2         93   0.090000    1.00800
    94 OC311       5 AGLC   O2         94  -0.650000   15.99940
    95 HT          5 AGLC   HO2        95   0.420000    1.00800
    96 CC3161      5 AGLC   C3         96   0.140000   12.01100
    97 HCA1        5 AGLC   H3         97   0.090000    1.00800
    98 OC311       5 AGLC   O3         98  -0.650000   15.99940
    99 HT          5 AGLC   HO3        99   0.420000    1.00800
   100 CC3161      5 AGLC   C4        100   0.090000   12.01100
   101 HCA1        5 AGLC   H4        101   0.090000    1.00800
   102 OC3C61      5 AGLC   O4        102  -0.360000   15.99940
   103 CC321       5 AGLC   C6        103   0.050000   12.01100
   104 HCA2        5 AGLC   H61       104   0.090000    1.00800
   105 HCA2        5 AGLC   H62       105   0.090000    1.00800
   106 OC311       5 AGLC   O6        106  -0.650000   15.99940
   107 HT          5 AGLC   HO6       107   0.420000    1.00800
   108 CC3161      6 AGLC   C1        108   0.290000   12.01100
   109 HCA1        6 AGLC   H1        109   0.090000    1.00800
   110 CC3161      6 AGLC   C5        110   0.110000   12.01100
   111 HCA1        6 AGLC   H5        111   0.090000    1.00800
   112 OC3C61      6 AGLC   O5        112  -0.400000   15.99940
   113 CC3161      6 AGLC   C2        113   0.140000   12.01100
   114 HCA1        6 AGLC   H2        114   0.090000    1.00800
   115 OC311       6 AGLC   O2        115  -0.650000   15.99940
   116 HT          6 AGLC   HO2       116   0.420000    1.00800
   117 CC3161      6 AGLC   C3        117   0.140000   12.01100
   118 HCA1        6 AGLC   H3        118   0.090000    1.00800
   119 OC311       6 AGLC   O3        119  -0.650000   15.99940
   120 HT          6 AGLC   HO3       120   0.420000    1.00800
   121 CC3161      6 AGLC   C4        121   0.140000   12.01100
   122 HCA1        6 AGLC   H4        122   0.090000    1.00800
   123 OC311       6 AGLC   O4        123  -0.650000   15.99940
   124 HT          6 AGLC   HO4       124   0.420000    1.00800
   125 CC321       6 AGLC   C6        125   0.050000   12.01100
   126 HCA2        6 AGLC   H61       126   0.090000    1.00800
   127 HCA2        6 AGLC   H62       127   0.090000    1.00800
   128 OC311       6 AGLC   O6        128  -0.650000   15.99940
   129 HT          6 AGLC   HO6       129   0.420000    1.00800

[ bonds ]
1 3 1 1.400000e-01 3.581500e+05
1 7 1 1.425000e-01 3.012480e+05
1 8 1 1.480000e-01 1.861880e+05
5 7 1 1.425000e-01 3.012480e+05
16 5 1 1.500000e-01 1.861880e+05
5 19 1 1.490000e-01 1.861880e+05
8 10 1 1.410000e-01 3.430880e+05
8 12 1 1.480000e-01 1.861880e+05
12 14 1 1.410000e-01 3.430880e+05
12 16 1 1.480000e-01 1.861880e+05
16 18 1 1.415000e-01 3.012480e+05
18 24 1 1.395000e-01 3.012480e+05
19 22 1 1.420000e-01 3.581500e+05
24 28 1 1.425000e-01 3.012480e+05
24 29 1 1.480000e-01 1.861880e+05
26 28 1 1.425000e-01 3.012480e+05
37 26 1 1.500000e-01 1.861880e+05
26 40 1 1.490000e-01 1.861880e+05
29 31 1 1.410000e-01 3.430880e+05
29 33 1 1.480000e-01 1.861880e+05
33 35 1 1.410000e-01 3.430880e+05
33 37 1 1.480000e-01 1.861880e+05
37 39 1 1.415000e-01 3.012480e+05
39 45 1 1.395000e-01 3.012480e+05
40 43 1 1.420000e-01 3.581500e+05
45 49 1 1.425000e-01 3.012480e+05
45 50 1 1.480000e-01 1.861880e+05
47 49 1 1.425000e-01 3.012480e+05
58 47 1 1.500000e-01 1.861880e+05
47 61 1 1.490000e-01 1.861880e+05
50 52 1 1.410000e-01 3.430880e+05
50 54 1 1.480000e-01 1.861880e+05
54 56 1 1.410000e-01 3.430880e+05
54 58 1 1.480000e-01 1.861880e+05
58 60 1 1.415000e-01 3.012480e+05
60 66 1 1.395000e-01 3.012480e+05
61 64 1 1.420000e-01 3.581500e+05
66 70 1 1.425000e-01 3.012480e+05
66 71 1 1.480000e-01 1.861880e+05
68 70 1 1.425000e-01 3.012480e+05
79 68 1 1.500000e-01 1.861880e+05
68 82 1 1.490000e-01 1.861880e+05
71 73 1 1.410000e-01 3.430880e+05
71 75 1 1.480000e-01 1.861880e+05
75 77 1 1.410000e-01 3.430880e+05
75 79 1 1.480000e-01 1.861880e+05
79 81 1 1.415000e-01 3.012480e+05
81 87 1 1.395000e-01 3.012480e+05
82 85 1 1.420000e-01 3.581500e+05
87 91 1 1.425000e-01 3.012480e+05
87 92 1 1.480000e-01 1.861880e+05
89 91 1 1.425000e-01 3.012480e+05
100 89 1 1.500000e-01 1.861880e+05
89 103 1 1.490000e-01 1.861880e+05
92 94 1 1.410000e-01 3.430880e+05
92 96 1 1.480000e-01 1.861880e+05
96 98 1 1.410000e-01 3.430880e+05
96 100 1 1.480000e-01 1.861880e+05
100 102 1 1.415000e-01 3.012480e+05
102 108 1 1.395000e-01 3.012480e+05
103 106 1 1.420000e-01 3.581500e+05
108 112 1 1.425000e-01 3.012480e+05
108 113 1 1.480000e-01 1.861880e+05
110 112 1 1.425000e-01 3.012480e+05
121 110 1 1.500000e-01 1.861880e+05
110 125 1 1.490000e-01 1.861880e+05
113 115 1 1.410000e-01 3.430880e+05
113 117 1 1.480000e-01 1.861880e+05
117 119 1 1.410000e-01 3.430880e+05
117 121 1 1.480000e-01 1.861880e+05
121 123 1 1.410000e-01 3.430880e+05
125 128 1 1.420000e-01 3.581500e+05

[ angles ]
2 1 3 5 1.08889999e+02 4.60239990e+02 0.00000000e+00 0.00000000e+00
2 1 7 5 1.09500000e+02 3.76559998e+02 0.00000000e+00 0.00000000e+00
2 1 8 5 1.10099998e+02 2.88696014e+02 2.17899993e-01 1.88531035e+04
3 1 7 5 1.16500000e+02 3.76559998e+02 0.00000000e+00 0.00000000e+00
3 1 8 5 1.07000000e+02 6.33457581e+02 0.00000000e+00 0.00000000e+00
7 1 8 5 1.06000000e+02 3.76559998e+02 0.00000000e+00 0.00000000e+00
1 3 4 5 1.09000000e+02 4.18399994e+02 0.00000000e+00 0.00000000e+00
6 5 7 5 1.09500000e+02 3.76559998e+02 0.00000000e+00 0.00000000e+00
6 5 16 5 1.10099998e+02 2.88696014e+02 2.17899993e-01 1.88531035e+04
6 5 19 5 1.10099998e+02 2.88696014e+02 2.17899993e-01 1.88531035e+04
7 5 16 5 1.10000000e+02 3.76559998e+02 0.00000000e+00 0.00000000e+00
7 5 19 5 1.09000000e+02 3.76559998e+02 0.00000000e+00 0.00000000e+00
16 5 19 5 1.13500000e+02 4.88272797e+02 2.56099999e-01 9.33868848e+03
1 7 5 5 1.09699997e+02 7.94960022e+02 0.00000000e+00 0.00000000e+00
1 8 9 5 1.10099998e+02 2.88696014e+02 2.17899993e-01 1.88531035e+04
1 8 10 5 1.10099998e+02 6.33457581e+02 0.00000000e+00 0.00000000e+00
1 8 12 5 1.11000000e+02 4.46432800e+02 2.56099999e-01 6.69439990e+03
9 8 10 5 1.08889999e+02 4.60239990e+02 0.00000000e+00 0.00000000e+00
9 8 12 5 1.10099998e+02 2.88696014e+02 2.17899993e-01 1.88531035e+04
10 8 12 5 1.10099998e+02 6.33457581e+02 0.00000000e+00 0.00000000e+00
8 10 11 5 1.09000000e+02 4.18399994e+02 0.00000000e+00 0.00000000e+00
8 12 13 5 1.10099998e+02 2.88696014e+02 2.17899993e-01 1.88531035e+04
8 12 14 5 1.10099998e+02 6.33457581e+02 0.00000000e+00 0.00000000e+00
8 12 16 5 1.11000000e+02 4.46432800e+02 2.56099999e-01 6.69439990e+03
13 12 14 5 1.08889999e+02 4.60239990e+02 0.00000000e+00 0.00000000e+00
13 12 16 5 1.10099998e+02 2.88696014e+02 2.17899993e-01 1.88531035e+04
14 12 16 5 1.10099998e+02 6.33457581e+02 0.00000000e+00 0.00000000e+00
12 14 15 5 1.09000000e+02 4.18399994e+02 0.00000000e+00 0.00000000e+00
5 16 12 5 1.11000000e+02 4.46432800e+02 2.56099999e-01 6.69439990e+03
5 16 17 5 1.10099998e+02 2.88696014e+02 2.17899993e-01 1.88531035e+04
5 16 18 5 1.09000000e+02 3.76559998e+02 0.00000000e+00 0.00000000e+00
12 16 17 5 1.10099998e+02 2.88696014e+02 2.17899993e-01 1.88531035e+04
12 16 18 5 1.09000000e+02 3.76559998e+02 0.00000000e+00 0.00000000e+00
17 16 18 5 1.09500000e+02 5.02079987e+02 0.00000000e+00 0.00000000e+00
16 18 24 5 1.09199997e+02 4.18399994e+02 0.00000000e+00 0.00000000e+00
5 19 20 5 1.10099998e+02 2.79742249e+02 2.17899993e-01 1.88531035e+04
5 19 21 5 1.10099998e+02 2.79742249e+02 2.17899993e-01 1.88531035e+04
5 19 22 5 1.10099998e+02 6.33457581e+02 0.00000000e+00 0.00000000e+00
20 19 21 5 1.09000000e+02 2.97063995e+02 1.80199996e-01 4.51872021e+03
20 19 22 5 1.08889999e+02 4.60239990e+02 0.00000000e+00 0.00000000e+00
21 19 22 5 1.08889999e+02 4.60239990e+02 0.00000000e+00 0.00000000e+00
19 22 23 5 1.09000000e+02 4.18399994e+02 0.00000000e+00 0.00000000e+00
18 24 25 5 1.09500000e+02 5.02079987e+02 0.00000000e+00 0.00000000e+00
18 24 28 5 1.12000000e+02 7.53119995e+02 0.00000000e+00 0.00000000e+00
18 24 29 5 1.05000000e+02 3.76559998e+02 0.00000000e+00 0.00000000e+00
25 24 28 5 1.09500000e+02 3.76559998e+02 0.00000000e+00 0.00000000e+00
25 24 29 5 1.10099998e+02 2.88696014e+02 2.17899993e-01 1.88531035e+04
28 24 29 5 1.06000000e+02 3.76559998e+02 0.00000000e+00 0.00000000e+00
27 26 28 5 1.09500000e+02 3.76559998e+02 0.00000000e+00 0.00000000e+00
27 26 37 5 1.10099998e+02 2.88696014e+02 2.17899993e-01 1.88531035e+04
27 26 40 5 1.10099998e+02 2.88696014e+02 2.17899993e-01 1.88531035e+04
28 26 37 5 1.10000000e+02 3.76559998e+02 0.00000000e+00 0.00000000e+00
28 26 40 5 1.09000000e+02 3.76559998e+02 0.00000000e+00 0.00000000e+00
37 26 40 5 1.13500000e+02 4.88272797e+02 2.56099999e-01 9.33868848e+03
24 28 26 5 1.09699997e+02 7.94960022e+02 0.00000000e+00 0.00000000e+00
24 29 30 5 1.10099998e+02 2.88696014e+02 2.17899993e-01 1.88531035e+04
24 29 31 5 1.10099998e+02 6.33457581e+02 0.00000000e+00 0.00000000e+00
24 29 33 5 1.11000000e+02 4.46432800e+02 2.56099999e-01 6.69439990e+03
30 29 31 5 1.08889999e+02 4.60239990e+02 0.00000000e+00 0.00000000e+00
30 29 33 5 1.10099998e+02 2.88696014e+02 2.17899993e-01 1.88531035e+04
31 29 33 5 1.10099998e+02 6.33457581e+02 0.00000000e+00 0.00000000e+00
29 31 32 5 1.09000000e+02 4.18399994e+02 0.00000000e+00 0.00000000e+00
29 33 34 5 1.10099998e+02 2.88696014e+02 2.17899993e-01 1.88531035e+04
29 33 35 5 1.10099998e+02 6.33457581e+02 0.00000000e+00 0.00000000e+00
29 33 37 5 1.11000000e+02 4.46432800e+02 2.56099999e-01 6.69439990e+03
34 33 35 5 1.08889999e+02 4.60239990e+02 0.00000000e+00 0.00000000e+00
34 33 37 5 1.10099998e+02 2.88696014e+02 2.17899993e-01 1.88531035e+04
35 33 37 5 1.10099998e+02 6.33457581e+02 0.00000000e+00 0.00000000e+00
33 35 36 5 1.09000000e+02 4.18399994e+02 0.00000000e+00 0.00000000e+00
26 37 33 5 1.11000000e+02 4.46432800e+02 2.56099999e-01 6.69439990e+03
26 37 38 5 1.10099998e+02 2.88696014e+02 2.17899993e-01 1.88531035e+04
26 37 39 5 1.09000000e+02 3.76559998e+02 0.00000000e+00 0.00000000e+00
33 37 38 5 1.10099998e+02 2.88696014e+02 2.17899993e-01 1.88531035e+04
33 37 39 5 1.09000000e+02 3.76559998e+02 0.00000000e+00 0.00000000e+00
38 37 39 5 1.09500000e+02 5.02079987e+02 0.00000000e+00 0.00000000e+00
37 39 45 5 1.09199997e+02 4.18399994e+02 0.00000000e+00 0.00000000e+00
26 40 41 5 1.10099998e+02 2.79742249e+02 2.17899993e-01 1.88531035e+04
26 40 42 5 1.10099998e+02 2.79742249e+02 2.17899993e-01 1.88531035e+04
26 40 43 5 1.10099998e+02 6.33457581e+02 0.00000000e+00 0.00000000e+00
41 40 42 5 1.09000000e+02 2.97063995e+02 1.80199996e-01 4.51872021e+03
41 40 43 5 1.08889999e+02 4.60239990e+02 0.00000000e+00 0.00000000e+00
42 40 43 5 1.08889999e+02 4.60239990e+02 0.00000000e+00 0.00000000e+00
40 43 44 5 1.09000000e+02 4.18399994e+02 0.00000000e+00 0.00000000e+00
39 45 46 5 1.09500000e+02 5.02079987e+02 0.00000000e+00 0.00000000e+00
39 45 49 5 1.12000000e+02 7.53119995e+02 0.00000000e+00 0.00000000e+00
39 45 50 5 1.05000000e+02 3.76559998e+02 0.00000000e+00 0.00000000e+00
46 45 49 5 1.09500000e+02 3.76559998e+02 0.00000000e+00 0.00000000e+00
46 45 50 5 1.10099998e+02 2.88696014e+02 2.17899993e-01 1.88531035e+04
49 45 50 5 1.06000000e+02 3.76559998e+02 0.00000000e+00 0.00000000e+00
48 47 49 5 1.09500000e+02 3.76559998e+02 0.00000000e+00 0.00000000e+00
48 47 58 5 1.10099998e+02 2.88696014e+02 2.17899993e-01 1.88531035e+04
48 47 61 5 1.10099998e+02 2.88696014e+02 2.17899993e-01 1.88531035e+04
49 47 58 5 1.10000000e+02 3.76559998e+02 0.00000000e+00 0.00000000e+00
49 47 61 5 1.09000000e+02 3.76559998e+02 0.00000000e+00 0.00000000e+00
58 47 61 5 1.13500000e+02 4.88272797e+02 2.56099999e-01 9.33868848e+03
45 49 47 5 1.09699997e+02 7.94960022e+02 0.00000000e+00 0.00000000e+00
45 50 51 5 1.10099998e+02 2.88696014e+02 2.17899993e-01 1.88531035e+04
45 50 52 5 1.10099998e+02 6.33457581e+02 0.00000000e+00 0.00000000e+00
45 50 54 5 1.11000000e+02 4.46432800e+02 2.56099999e-01 6.69439990e+03
51 50 52 5 1.08889999e+02 4.60239990e+02 0.00000000e+00 0.00000000e+00
51 50 54 5 1.10099998e+02 2.88696014e+02 2.17899993e-01 1.88531035e+04
52 50 54 5 1.10099998e+02 6.33457581e+02 0.00000000e+00 0.00000000e+00
50 52 53 5 1.09000000e+02 4.18399994e+02 0.00000000e+00 0.00000000e+00
50 54 55 5 1.10099998e+02 2.88696014e+02 2.17899993e-01 1.88531035e+04
50 54 56 5 1.10099998e+02 6.33457581e+02 0.00000000e+00 0.00000000e+00
50 54 58 5 1.11000000e+02 4.46432800e+02 2.56099999e-01 6.69439990e+03
55 54 56 5 1.08889999e+02 4.60239990e+02 0.00000000e+00 0.00000000e+00
55 54 58 5 1.10099998e+02 2.88696014e+02 2.17899993e-01 1.88531035e+04
56 54 58 5 1.10099998e+02 6.33457581e+02 0.00000000e+00 0.00000000e+00
54 56 57 5 1.09000000e+02 4.18399994e+02 0.00000000e+00 0.00000000e+00
47 58 54 5 1.11000000e+02 4.46432800e+02 2.56099999e-01 6.69439990e+03
47 58 59 5 1.10099998e+02 2.88696014e+02 2.17899993e-01 1.88531035e+04
47 58 60 5 1.09000000e+02 3.76559998e+02 0.00000000e+00 0.00000000e+00
54 58 59 5 1.10099998e+02 2.88696014e+02 2.17899993e-01 1.88531035e+04
54 58 60 5 1.09000000e+02 3.76559998e+02 0.00000000e+00 0.00000000e+00
59 58 60 5 1.09500000e+02 5.02079987e+02 0.00000000e+00 0.00000000e+00
58 60 66 5 1.09199997e+02 4.18399994e+02 0.00000000e+00 0.00000000e+00
47 61 62 5 1.10099998e+02 2.79742249e+02 2.17899993e-01 1.88531035e+04
47 61 63 5 1.10099998e+02 2.79742249e+02 2.17899993e-01 1.88531035e+04
47 61 64 5 1.10099998e+02 6.33457581e+02 0.00000000e+00 0.00000000e+00
62 61 63 5 1.09000000e+02 2.97063995e+02 1.80199996e-01 4.51872021e+03
62 61 64 5 1.08889999e+02 4.60239990e+02 0.00000000e+00 0.00000000e+00
63 61 64 5 1.08889999e+02 4.60239990e+02 0.00000000e+00 0.00000000e+00
61 64 65 5 1.09000000e+02 4.18399994e+02 0.00000000e+00 0.00000000e+00
60 66 67 5 1.09500000e+02 5.02079987e+02 0.00000000e+00 0.00000000e+00
60 66 70 5 1.12000000e+02 7.53119995e+02 0.00000000e+00 0.00000000e+00
60 66 71 5 1.05000000e+02 3.76559998e+02 0.00000000e+00 0.00000000e+00
67 66 70 5 1.09500000e+02 3.76559998e+02 0.00000000e+00 0.00000000e+00
67 66 71 5 1.10099998e+02 2.88696014e+02 2.17899993e-01 1.88531035e+04
70 66 71 5 1.06000000e+02 3.76559998e+02 0.00000000e+00 0.00000000e+00
69 68 70 5 1.09500000e+02 3.76559998e+02 0.00000000e+00 0.00000000e+00
69 68 79 5 1.10099998e+02 2.88696014e+02 2.17899993e-01 1.88531035e+04
69 68 82 5 1.10099998e+02 2.88696014e+02 2.17899993e-01 1.88531035e+04
70 68 79 5 1.10000000e+02 3.76559998e+02 0.00000000e+00 0.00000000e+00
70 68 82 5 1.09000000e+02 3.76559998e+02 0.00000000e+00 0.00000000e+00
79 68 82 5 1.13500000e+02 4.88272797e+02 2.56099999e-01 9.33868848e+03
66 70 68 5 1.09699997e+02 7.94960022e+02 0.00000000e+00 0.00000000e+00
66 71 72 5 1.10099998e+02 2.88696014e+02 2.17899993e-01 1.88531035e+04
66 71 73 5 1.10099998e+02 6.33457581e+02 0.00000000e+00 0.00000000e+00
66 71 75 5 1.11000000e+02 4.46432800e+02 2.56099999e-01 6.69439990e+03
72 71 73 5 1.08889999e+02 4.60239990e+02 0.00000000e+00 0.00000000e+00
72 71 75 5 1.10099998e+02 2.88696014e+02 2.17899993e-01 1.88531035e+04
73 71 75 5 1.10099998e+02 6.33457581e+02 0.00000000e+00 0.00000000e+00
71 73 74 5 1.09000000e+02 4.18399994e+02 0.00000000e+00 0.00000000e+00
71 75 76 5 1.10099998e+02 2.88696014e+02 2.17899993e-01 1.88531035e+04
71 75 77 5 1.10099998e+02 6.33457581e+02 0.00000000e+00 0.00000000e+00
71 75 79 5 1.11000000e+02 4.46432800e+02 2.56099999e-01 6.69439990e+03
76 75 77 5 1.08889999e+02 4.60239990e+02 0.00000000e+00 0.00000000e+00
76 75 79 5 1.10099998e+02 2.88696014e+02 2.17899993e-01 1.88531035e+04
77 75 79 5 1.10099998e+02 6.33457581e+02 0.00000000e+00 0.00000000e+00
75 77 78 5 1.09000000e+02 4.18399994e+02 0.00000000e+00 0.00000000e+00
68 79 75 5 1.11000000e+02 4.46432800e+02 2.56099999e-01 6.69439990e+03
68 79 80 5 1.10099998e+02 2.88696014e+02 2.17899993e-01 1.88531035e+04
68 79 81 5 1.09000000e+02 3.76559998e+02 0.00000000e+00 0.00000000e+00
75 79 80 5 1.10099998e+02 2.88696014e+02 2.17899993e-01 1.88531035e+04
75 79 81 5 1.09000000e+02 3.76559998e+02 0.00000000e+00 0.00000000e+00
80 79 81 5 1.09500000e+02 5.02079987e+02 0.00000000e+00 0.00000000e+00
79 81 87 5 1.09199997e+02 4.18399994e+02 0.00000000e+00 0.00000000e+00
68 82 83 5 1.10099998e+02 2.79742249e+02 2.17899993e-01 1.88531035e+04
68 82 84 5 1.10099998e+02 2.79742249e+02 2.17899993e-01 1.88531035e+04
68 82 85 5 1.10099998e+02 6.33457581e+02 0.00000000e+00 0.00000000e+00
83 82 84 5 1.09000000e+02 2.97063995e+02 1.80199996e-01 4.51872021e+03
83 82 85 5 1.08889999e+02 4.60239990e+02 0.00000000e+00 0.00000000e+00
84 82 85 5 1.08889999e+02 4.60239990e+02 0.00000000e+00 0.00000000e+00
82 85 86 5 1.09000000e+02 4.18399994e+02 0.00000000e+00 0.00000000e+00
81 87 88 5 1.09500000e+02 5.02079987e+02 0.00000000e+00 0.00000000e+00
81 87 91 5 1.12000000e+02 7.53119995e+02 0.00000000e+00 0.00000000e+00
81 87 92 5 1.05000000e+02 3.76559998e+02 0.00000000e+00 0.00000000e+00
88 87 91 5 1.09500000e+02 3.76559998e+02 0.00000000e+00 0.00000000e+00
88 87 92 5 1.10099998e+02 2.88696014e+02 2.17899993e-01 1.88531035e+04
91 87 92 5 1.06000000e+02 3.76559998e+02 0.00000000e+00 0.00000000e+00
90 89 91 5 1.09500000e+02 3.76559998e+02 0.00000000e+00 0.00000000e+00
90 89 100 5 1.10099998e+02 2.88696014e+02 2.17899993e-01 1.88531035e+04
90 89 103 5 1.10099998e+02 2.88696014e+02 2.17899993e-01 1.88531035e+04
91 89 100 5 1.10000000e+02 3.76559998e+02 0.00000000e+00 0.00000000e+00
91 89 103 5 1.09000000e+02 3.76559998e+02 0.00000000e+00 0.00000000e+00
100 89 103 5 1.13500000e+02 4.88272797e+02 2.56099999e-01 9.33868848e+03
87 91 89 5 1.09699997e+02 7.94960022e+02 0.00000000e+00 0.00000000e+00
87 92 93 5 1.10099998e+02 2.88696014e+02 2.17899993e-01 1.88531035e+04
87 92 94 5 1.10099998e+02 6.33457581e+02 0.00000000e+00 0.00000000e+00
87 92 96 5 1.11000000e+02 4.46432800e+02 2.56099999e-01 6.69439990e+03
93 92 94 5 1.08889999e+02 4.60239990e+02 0.00000000e+00 0.00000000e+00
93 92 96 5 1.10099998e+02 2.88696014e+02 2.17899993e-01 1.88531035e+04
94 92 96 5 1.10099998e+02 6.33457581e+02 0.00000000e+00 0.00000000e+00
92 94 95 5 1.09000000e+02 4.18399994e+02 0.00000000e+00 0.00000000e+00
92 96 97 5 1.10099998e+02 2.88696014e+02 2.17899993e-01 1.88531035e+04
92 96 98 5 1.10099998e+02 6.33457581e+02 0.00000000e+00 0.00000000e+00
92 96 100 5 1.11000000e+02 4.46432800e+02 2.56099999e-01 6.69439990e+03
97 96 98 5 1.08889999e+02 4.60239990e+02 0.00000000e+00 0.00000000e+00
97 96 100 5 1.10099998e+02 2.88696014e+02 2.17899993e-01 1.88531035e+04
98 96 100 5 1.10099998e+02 6.33457581e+02 0.00000000e+00 0.00000000e+00
96 98 99 5 1.09000000e+02 4.18399994e+02 0.00000000e+00 0.00000000e+00
89 100 96 5 1.11000000e+02 4.46432800e+02 2.56099999e-01 6.69439990e+03
89 100 101 5 1.10099998e+02 2.88696014e+02 2.17899993e-01 1.88531035e+04
89 100 102 5 1.09000000e+02 3.76559998e+02 0.00000000e+00 0.00000000e+00
96 100 101 5 1.10099998e+02 2.88696014e+02 2.17899993e-01 1.88531035e+04
96 100 102 5 1.09000000e+02 3.76559998e+02 0.00000000e+00 0.00000000e+00
101 100 102 5 1.09500000e+02 5.02079987e+02 0.00000000e+00 0.00000000e+00
100 102 108 5 1.09199997e+02 4.18399994e+02 0.00000000e+00 0.00000000e+00
89 103 104 5 1.10099998e+02 2.79742249e+02 2.17899993e-01 1.88531035e+04
89 103 105 5 1.10099998e+02 2.79742249e+02 2.17899993e-01 1.88531035e+04
89 103 106 5 1.10099998e+02 6.33457581e+02 0.00000000e+00 0.00000000e+00
104 103 105 5 1.09000000e+02 2.97063995e+02 1.80199996e-01 4.51872021e+03
104 103 106 5 1.08889999e+02 4.60239990e+02 0.00000000e+00 0.00000000e+00
105 103 106 5 1.08889999e+02 4.60239990e+02 0.00000000e+00 0.00000000e+00
103 106 107 5 1.09000000e+02 4.18399994e+02 0.00000000e+00 0.00000000e+00
102 108 109 5 1.09500000e+02 5.02079987e+02 0.00000000e+00 0.00000000e+00
102 108 112 5 1.12000000e+02 7.53119995e+02 0.00000000e+00 0.00000000e+00
102 108 113 5 1.05000000e+02 3.76559998e+02 0.00000000e+00 0.00000000e+00
109 108 112 5 1.09500000e+02 3.76559998e+02 0.00000000e+00 0.00000000e+00
109 108 113 5 1.10099998e+02 2.88696014e+02 2.17899993e-01 1.88531035e+04
112 108 113 5 1.06000000e+02 3.76559998e+02 0.00000000e+00 0.00000000e+00
111 110 112 5 1.09500000e+02 3.76559998e+02 0.00000000e+00 0.00000000e+00
111 110 121 5 1.10099998e+02 2.88696014e+02 2.17899993e-01 1.88531035e+04
111 110 125 5 1.10099998e+02 2.88696014e+02 2.17899993e-01 1.88531035e+04
112 110 121 5 1.10000000e+02 3.76559998e+02 0.00000000e+00 0.00000000e+00
112 110 125 5 1.09000000e+02 3.76559998e+02 0.00000000e+00 0.00000000e+00
121 110 125 5 1.13500000e+02 4.88272797e+02 2.56099999e-01 9.33868848e+03
108 112 110 5 1.09699997e+02 7.94960022e+02 0.00000000e+00 0.00000000e+00
108 113 114 5 1.10099998e+02 2.88696014e+02 2.17899993e-01 1.88531035e+04
108 113 115 5 1.10099998e+02 6.33457581e+02 0.00000000e+00 0.00000000e+00
108 113 117 5 1.11000000e+02 4.46432800e+02 2.56099999e-01 6.69439990e+03
114 113 115 5 1.08889999e+02 4.60239990e+02 0.00000000e+00 0.00000000e+00
114 113 117 5 1.10099998e+02 2.88696014e+02 2.17899993e-01 1.88531035e+04
115 113 117 5 1.10099998e+02 6.33457581e+02 0.00000000e+00 0.00000000e+00
113 115 116 5 1.09000000e+02 4.18399994e+02 0.00000000e+00 0.00000000e+00
113 117 118 5 1.10099998e+02 2.88696014e+02 2.17899993e-01 1.88531035e+04
113 117 119 5 1.10099998e+02 6.33457581e+02 0.00000000e+00 0.00000000e+00
113 117 121 5 1.11000000e+02 4.46432800e+02 2.56099999e-01 6.69439990e+03
118 117 119 5 1.08889999e+02 4.60239990e+02 0.00000000e+00 0.00000000e+00
118 117 121 5 1.10099998e+02 2.88696014e+02 2.17899993e-01 1.88531035e+04
119 117 121 5 1.10099998e+02 6.33457581e+02 0.00000000e+00 0.00000000e+00
117 119 120 5 1.09000000e+02 4.18399994e+02 0.00000000e+00 0.00000000e+00
110 121 117 5 1.11000000e+02 4.46432800e+02 2.56099999e-01 6.69439990e+03
110 121 122 5 1.10099998e+02 2.88696014e+02 2.17899993e-01 1.88531035e+04
110 121 123 5 1.10099998e+02 6.33457581e+02 0.00000000e+00 0.00000000e+00
117 121 122 5 1.10099998e+02 2.88696014e+02 2.17899993e-01 1.88531035e+04
117 121 123 5 1.10099998e+02 6.33457581e+02 0.00000000e+00 0.00000000e+00
122 121 123 5 1.08889999e+02 4.60239990e+02 0.00000000e+00 0.00000000e+00
121 123 124 5 1.09000000e+02 4.18399994e+02 0.00000000e+00 0.00000000e+00
110 125 126 5 1.10099998e+02 2.79742249e+02 2.17899993e-01 1.88531035e+04
110 125 127 5 1.10099998e+02 2.79742249e+02 2.17899993e-01 1.88531035e+04
110 125 128 5 1.10099998e+02 6.33457581e+02 0.00000000e+00 0.00000000e+00
126 125 127 5 1.09000000e+02 2.97063995e+02 1.80199996e-01 4.51872021e+03
126 125 128 5 1.08889999e+02 4.60239990e+02 0.00000000e+00 0.00000000e+00
127 125 128 5 1.08889999e+02 4.60239990e+02 0.00000000e+00 0.00000000e+00
125 128 129 5 1.09000000e+02 4.18399994e+02 0.00000000e+00 0.00000000e+00

[ dihedrals ]
2 1 3 4 9 0.000000 7.53120005e-01 3
2 1 7 5 9 0.000000 1.18825603e+00 3
3 1 7 5 9 180.000000 1.71544003e+00 1
3 1 7 5 9 0.000000 3.72375989e+00 2
3 1 7 5 9 0.000000 2.09199995e-01 3
2 1 8 9 9 0.000000 8.36799979e-01 3
2 1 8 10 9 0.000000 5.85759997e-01 3
2 1 8 12 9 0.000000 8.36799979e-01 3
3 1 8 9 9 0.000000 5.85759997e-01 3
3 1 8 10 9 180.000000 1.10875998e+01 1
3 1 8 10 9 180.000000 5.43919981e-01 3
3 1 8 12 9 0.000000 8.36799979e-01 3
7 1 8 9 9 0.000000 8.36799979e-01 3
7 1 8 10 9 180.000000 1.15059996e+01 1
7 1 8 10 9 180.000000 1.08783996e+00 2
7 1 8 10 9 0.000000 4.18399990e-01 3
7 1 8 12 9 180.000000 1.29703999e+00 3
4 3 1 7 9 0.000000 6.48519993e+00 1
4 3 1 7 9 0.000000 4.89527988e+00 2
4 3 1 7 9 0.000000 4.47688007e+00 3
4 3 1 8 9 0.000000 1.21335995e+00 1
4 3 1 8 9 0.000000 2.59407997e+00 2
4 3 1 8 9 0.000000 2.09199995e-01 3
6 5 16 12 9 0.000000 8.36799979e-01 3
6 5 16 17 9 0.000000 8.36799979e-01 3
6 5 16 18 9 0.000000 8.36799979e-01 3
7 5 16 12 9 180.000000 1.29703999e+00 3
7 5 16 17 9 0.000000 8.36799979e-01 3
7 5 16 18 9 180.000000 5.69023991e+00 1
7 5 16 18 9 0.000000 6.69439971e-01 2
7 5 16 18 9 0.000000 4.22584009e+00 3
6 5 19 20 9 0.000000 8.36799979e-01 3
6 5 19 21 9 0.000000 8.36799979e-01 3
6 5 19 22 9 0.000000 5.85759997e-01 3
7 5 19 20 9 0.000000 8.36799979e-01 3
7 5 19 21 9 0.000000 8.36799979e-01 3
7 5 19 22 9 180.000000 3.13800001e+00 1
7 5 19 22 9 0.000000 7.11279988e-01 2
7 5 19 22 9 180.000000 1.04600000e+00 3
16 5 19 20 9 0.000000 8.36799979e-01 3
16 5 19 21 9 0.000000 8.36799979e-01 3
16 5 19 22 9 0.000000 8.36799979e-01 3
5 7 1 8 9 0.000000 8.36799979e-01 3
1 7 5 6 9 0.000000 1.18825603e+00 3
1 7 5 16 9 0.000000 8.36799979e-01 3
1 7 5 19 9 0.000000 8.36799979e-01 3
1 8 10 11 9 0.000000 1.21335995e+00 1
1 8 10 11 9 0.000000 2.59407997e+00 2
1 8 10 11 9 0.000000 2.09199995e-01 3
9 8 10 11 9 0.000000 7.53120005e-01 3
1 8 12 13 9 0.000000 8.36799979e-01 3
1 8 12 14 9 0.000000 8.36799979e-01 3
1 8 12 16 9 180.000000 7.94960022e-01 3
9 8 12 13 9 0.000000 8.36799979e-01 3
9 8 12 14 9 0.000000 5.85759997e-01 3
9 8 12 16 9 0.000000 8.36799979e-01 3
10 8 12 13 9 0.000000 5.85759997e-01 3
10 8 12 14 9 180.000000 1.10875998e+01 1
10 8 12 14 9 180.000000 5.43919981e-01 3
10 8 12 16 9 0.000000 8.36799979e-01 3
11 10 8 12 9 0.000000 1.21335995e+00 1
11 10 8 12 9 0.000000 2.59407997e+00 2
11 10 8 12 9 0.000000 2.09199995e-01 3
8 12 14 15 9 0.000000 1.21335995e+00 1
8 12 14 15 9 0.000000 2.59407997e+00 2
8 12 14 15 9 0.000000 2.09199995e-01 3
13 12 14 15 9 0.000000 7.53120005e-01 3
8 12 16 17 9 0.000000 8.36799979e-01 3
8 12 16 18 9 0.000000 8.36799979e-01 3
13 12 16 17 9 0.000000 8.36799979e-01 3
13 12 16 18 9 0.000000 8.36799979e-01 3
14 12 16 17 9 0.000000 5.85759997e-01 3
14 12 16 18 9 180.000000 1.10875998e+01 1
14 12 16 18 9 180.000000 5.43919981e-01 3
15 14 12 16 9 0.000000 1.21335995e+00 1
15 14 12 16 9 0.000000 2.59407997e+00 2
15 14 12 16 9 0.000000 2.09199995e-01 3
12 16 5 19 9 0.000000 8.36799979e-01 3
17 16 5 19 9 0.000000 8.36799979e-01 3
18 16 5 19 9 0.000000 8.36799979e-01 3
5 16 12 8 9 180.000000 7.94960022e-01 3
5 16 12 13 9 0.000000 8.36799979e-01 3
5 16 12 14 9 0.000000 8.36799979e-01 3
5 16 18 24 9 180.000000 5.43919981e-01 1
5 16 18 24 9 180.000000 1.04600000e+00 2
5 16 18 24 9 180.000000 2.51040012e-01 3
12 16 18 24 9 180.000000 5.43919981e-01 1
12 16 18 24 9 180.000000 1.04600000e+00 2
12 16 18 24 9 180.000000 2.51040012e-01 3
17 16 18 24 9 0.000000 1.18825603e+00 3
16 18 24 25 9 0.000000 1.18825603e+00 3
16 18 24 28 9 180.000000 2.09199995e-01 1
16 18 24 28 9 0.000000 3.80744004e+00 2
16 18 24 28 9 180.000000 5.31368017e+00 3
16 18 24 29 9 180.000000 1.71544003e+00 1
16 18 24 29 9 180.000000 2.76144004e+00 2
16 18 24 29 9 0.000000 6.69439983e+00 3
5 19 22 23 9 0.000000 1.21335995e+00 1
5 19 22 23 9 0.000000 2.59407997e+00 2
5 19 22 23 9 0.000000 2.09199995e-01 3
20 19 22 23 9 0.000000 7.53120005e-01 3
21 19 22 23 9 0.000000 7.53120005e-01 3
18 24 28 26 9 180.000000 1.71544003e+00 1
18 24 28 26 9 0.000000 3.72375989e+00 2
18 24 28 26 9 0.000000 2.09199995e-01 3
25 24 28 26 9 0.000000 1.18825603e+00 3
18 24 29 30 9 0.000000 8.36799979e-01 3
18 24 29 31 9 180.000000 1.10875998e+01 1
18 24 29 31 9 180.000000 5.43919981e-01 3
18 24 29 33 9 0.000000 8.36799979e-01 3
25 24 29 30 9 0.000000 8.36799979e-01 3
25 24 29 31 9 0.000000 5.85759997e-01 3
25 24 29 33 9 0.000000 8.36799979e-01 3
28 24 29 30 9 0.000000 8.36799979e-01 3
28 24 29 31 9 180.000000 1.15059996e+01 1
28 24 29 31 9 180.000000 1.08783996e+00 2
28 24 29 31 9 0.000000 4.18399990e-01 3
28 24 29 33 9 180.000000 1.29703999e+00 3
27 26 37 33 9 0.000000 8.36799979e-01 3
27 26 37 38 9 0.000000 8.36799979e-01 3
27 26 37 39 9 0.000000 8.36799979e-01 3
28 26 37 33 9 180.000000 1.29703999e+00 3
28 26 37 38 9 0.000000 8.36799979e-01 3
28 26 37 39 9 180.000000 5.69023991e+00 1
28 26 37 39 9 0.000000 6.69439971e-01 2
28 26 37 39 9 0.000000 4.22584009e+00 3
27 26 40 41 9 0.000000 8.36799979e-01 3
27 26 40 42 9 0.000000 8.36799979e-01 3
27 26 40 43 9 0.000000 5.85759997e-01 3
28 26 40 41 9 0.000000 8.36799979e-01 3
28 26 40 42 9 0.000000 8.36799979e-01 3
28 26 40 43 9 180.000000 3.13800001e+00 1
28 26 40 43 9 0.000000 7.11279988e-01 2
28 26 40 43 9 180.000000 1.04600000e+00 3
37 26 40 41 9 0.000000 8.36799979e-01 3
37 26 40 42 9 0.000000 8.36799979e-01 3
37 26 40 43 9 0.000000 8.36799979e-01 3
26 28 24 29 9 0.000000 8.36799979e-01 3
24 28 26 27 9 0.000000 1.18825603e+00 3
24 28 26 37 9 0.000000 8.36799979e-01 3
24 28 26 40 9 0.000000 8.36799979e-01 3
24 29 31 32 9 0.000000 1.21335995e+00 1
24 29 31 32 9 0.000000 2.59407997e+00 2
24 29 31 32 9 0.000000 2.09199995e-01 3
30 29 31 32 9 0.000000 7.53120005e-01 3
24 29 33 34 9 0.000000 8.36799979e-01 3
24 29 33 35 9 0.000000 8.36799979e-01 3
24 29 33 37 9 180.000000 7.94960022e-01 3
30 29 33 34 9 0.000000 8.36799979e-01 3
30 29 33 35 9 0.000000 5.85759997e-01 3
30 29 33 37 9 0.000000 8.36799979e-01 3
31 29 33 34 9 0.000000 5.85759997e-01 3
31 29 33 35 9 180.000000 1.10875998e+01 1
31 29 33 35 9 180.000000 5.43919981e-01 3
31 29 33 37 9 0.000000 8.36799979e-01 3
32 31 29 33 9 0.000000 1.21335995e+00 1
32 31 29 33 9 0.000000 2.59407997e+00 2
32 31 29 33 9 0.000000 2.09199995e-01 3
29 33 35 36 9 0.000000 1.21335995e+00 1
29 33 35 36 9 0.000000 2.59407997e+00 2
29 33 35 36 9 0.000000 2.09199995e-01 3
34 33 35 36 9 0.000000 7.53120005e-01 3
29 33 37 38 9 0.000000 8.36799979e-01 3
29 33 37 39 9 0.000000 8.36799979e-01 3
34 33 37 38 9 0.000000 8.36799979e-01 3
34 33 37 39 9 0.000000 8.36799979e-01 3
35 33 37 38 9 0.000000 5.85759997e-01 3
35 33 37 39 9 180.000000 1.10875998e+01 1
35 33 37 39 9 180.000000 5.43919981e-01 3
36 35 33 37 9 0.000000 1.21335995e+00 1
36 35 33 37 9 0.000000 2.59407997e+00 2
36 35 33 37 9 0.000000 2.09199995e-01 3
33 37 26 40 9 0.000000 8.36799979e-01 3
38 37 26 40 9 0.000000 8.36799979e-01 3
39 37 26 40 9 0.000000 8.36799979e-01 3
26 37 33 29 9 180.000000 7.94960022e-01 3
26 37 33 34 9 0.000000 8.36799979e-01 3
26 37 33 35 9 0.000000 8.36799979e-01 3
26 37 39 45 9 180.000000 5.43919981e-01 1
26 37 39 45 9 180.000000 1.04600000e+00 2
26 37 39 45 9 180.000000 2.51040012e-01 3
33 37 39 45 9 180.000000 5.43919981e-01 1
33 37 39 45 9 180.000000 1.04600000e+00 2
33 37 39 45 9 180.000000 2.51040012e-01 3
38 37 39 45 9 0.000000 1.18825603e+00 3
37 39 45 46 9 0.000000 1.18825603e+00 3
37 39 45 49 9 180.000000 2.09199995e-01 1
37 39 45 49 9 0.000000 3.80744004e+00 2
37 39 45 49 9 180.000000 5.31368017e+00 3
37 39 45 50 9 180.000000 1.71544003e+00 1
37 39 45 50 9 180.000000 2.76144004e+00 2
37 39 45 50 9 0.000000 6.69439983e+00 3
26 40 43 44 9 0.000000 1.21335995e+00 1
26 40 43 44 9 0.000000 2.59407997e+00 2
26 40 43 44 9 0.000000 2.09199995e-01 3
41 40 43 44 9 0.000000 7.53120005e-01 3
42 40 43 44 9 0.000000 7.53120005e-01 3
39 45 49 47 9 180.000000 1.71544003e+00 1
39 45 49 47 9 0.000000 3.72375989e+00 2
39 45 49 47 9 0.000000 2.09199995e-01 3
46 45 49 47 9 0.000000 1.18825603e+00 3
39 45 50 51 9 0.000000 8.36799979e-01 3
39 45 50 52 9 180.000000 1.10875998e+01 1
39 45 50 52 9 180.000000 5.43919981e-01 3
39 45 50 54 9 0.000000 8.36799979e-01 3
46 45 50 51 9 0.000000 8.36799979e-01 3
46 45 50 52 9 0.000000 5.85759997e-01 3
46 45 50 54 9 0.000000 8.36799979e-01 3
49 45 50 51 9 0.000000 8.36799979e-01 3
49 45 50 52 9 180.000000 1.15059996e+01 1
49 45 50 52 9 180.000000 1.08783996e+00 2
49 45 50 52 9 0.000000 4.18399990e-01 3
49 45 50 54 9 180.000000 1.29703999e+00 3
48 47 58 54 9 0.000000 8.36799979e-01 3
48 47 58 59 9 0.000000 8.36799979e-01 3
48 47 58 60 9 0.000000 8.36799979e-01 3
49 47 58 54 9 180.000000 1.29703999e+00 3
49 47 58 59 9 0.000000 8.36799979e-01 3
49 47 58 60 9 180.000000 5.69023991e+00 1
49 47 58 60 9 0.000000 6.69439971e-01 2
49 47 58 60 9 0.000000 4.22584009e+00 3
48 47 61 62 9 0.000000 8.36799979e-01 3
48 47 61 63 9 0.000000 8.36799979e-01 3
48 47 61 64 9 0.000000 5.85759997e-01 3
49 47 61 62 9 0.000000 8.36799979e-01 3
49 47 61 63 9 0.000000 8.36799979e-01 3
49 47 61 64 9 180.000000 3.13800001e+00 1
49 47 61 64 9 0.000000 7.11279988e-01 2
49 47 61 64 9 180.000000 1.04600000e+00 3
58 47 61 62 9 0.000000 8.36799979e-01 3
58 47 61 63 9 0.000000 8.36799979e-01 3
58 47 61 64 9 0.000000 8.36799979e-01 3
47 49 45 50 9 0.000000 8.36799979e-01 3
45 49 47 48 9 0.000000 1.18825603e+00 3
45 49 47 58 9 0.000000 8.36799979e-01 3
45 49 47 61 9 0.000000 8.36799979e-01 3
45 50 52 53 9 0.000000 1.21335995e+00 1
45 50 52 53 9 0.000000 2.59407997e+00 2
45 50 52 53 9 0.000000 2.09199995e-01 3
51 50 52 53 9 0.000000 7.53120005e-01 3
45 50 54 55 9 0.000000 8.36799979e-01 3
45 50 54 56 9 0.000000 8.36799979e-01 3
45 50 54 58 9 180.000000 7.94960022e-01 3
51 50 54 55 9 0.000000 8.36799979e-01 3
51 50 54 56 9 0.000000 5.85759997e-01 3
51 50 54 58 9 0.000000 8.36799979e-01 3
52 50 54 55 9 0.000000 5.85759997e-01 3
52 50 54 56 9 180.000000 1.10875998e+01 1
52 50 54 56 9 180.000000 5.43919981e-01 3
52 50 54 58 9 0.000000 8.36799979e-01 3
53 52 50 54 9 0.000000 1.21335995e+00 1
53 52 50 54 9 0.000000 2.59407997e+00 2
53 52 50 54 9 0.000000 2.09199995e-01 3
50 54 56 57 9 0.000000 1.21335995e+00 1
50 54 56 57 9 0.000000 2.59407997e+00 2
50 54 56 57 9 0.000000 2.09199995e-01 3
55 54 56 57 9 0.000000 7.53120005e-01 3
50 54 58 59 9 0.000000 8.36799979e-01 3
50 54 58 60 9 0.000000 8.36799979e-01 3
55 54 58 59 9 0.000000 8.36799979e-01 3
55 54 58 60 9 0.000000 8.36799979e-01 3
56 54 58 59 9 0.000000 5.85759997e-01 3
56 54 58 60 9 180.000000 1.10875998e+01 1
56 54 58 60 9 180.000000 5.43919981e-01 3
57 56 54 58 9 0.000000 1.21335995e+00 1
57 56 54 58 9 0.000000 2.59407997e+00 2
57 56 54 58 9 0.000000 2.09199995e-01 3
54 58 47 61 9 0.000000 8.36799979e-01 3
59 58 47 61 9 0.000000 8.36799979e-01 3
60 58 47 61 9 0.000000 8.36799979e-01 3
47 58 54 50 9 180.000000 7.94960022e-01 3
47 58 54 55 9 0.000000 8.36799979e-01 3
47 58 54 56 9 0.000000 8.36799979e-01 3
47 58 60 66 9 180.000000 5.43919981e-01 1
47 58 60 66 9 180.000000 1.04600000e+00 2
47 58 60 66 9 180.000000 2.51040012e-01 3
54 58 60 66 9 180.000000 5.43919981e-01 1
54 58 60 66 9 180.000000 1.04600000e+00 2
54 58 60 66 9 180.000000 2.51040012e-01 3
59 58 60 66 9 0.000000 1.18825603e+00 3
58 60 66 67 9 0.000000 1.18825603e+00 3
58 60 66 70 9 180.000000 2.09199995e-01 1
58 60 66 70 9 0.000000 3.80744004e+00 2
58 60 66 70 9 180.000000 5.31368017e+00 3
58 60 66 71 9 180.000000 1.71544003e+00 1
58 60 66 71 9 180.000000 2.76144004e+00 2
58 60 66 71 9 0.000000 6.69439983e+00 3
47 61 64 65 9 0.000000 1.21335995e+00 1
47 61 64 65 9 0.000000 2.59407997e+00 2
47 61 64 65 9 0.000000 2.09199995e-01 3
62 61 64 65 9 0.000000 7.53120005e-01 3
63 61 64 65 9 0.000000 7.53120005e-01 3
60 66 70 68 9 180.000000 1.71544003e+00 1
60 66 70 68 9 0.000000 3.72375989e+00 2
60 66 70 68 9 0.000000 2.09199995e-01 3
67 66 70 68 9 0.000000 1.18825603e+00 3
60 66 71 72 9 0.000000 8.36799979e-01 3
60 66 71 73 9 180.000000 1.10875998e+01 1
60 66 71 73 9 180.000000 5.43919981e-01 3
60 66 71 75 9 0.000000 8.36799979e-01 3
67 66 71 72 9 0.000000 8.36799979e-01 3
67 66 71 73 9 0.000000 5.85759997e-01 3
67 66 71 75 9 0.000000 8.36799979e-01 3
70 66 71 72 9 0.000000 8.36799979e-01 3
70 66 71 73 9 180.000000 1.15059996e+01 1
70 66 71 73 9 180.000000 1.08783996e+00 2
70 66 71 73 9 0.000000 4.18399990e-01 3
70 66 71 75 9 180.000000 1.29703999e+00 3
69 68 79 75 9 0.000000 8.36799979e-01 3
69 68 79 80 9 0.000000 8.36799979e-01 3
69 68 79 81 9 0.000000 8.36799979e-01 3
70 68 79 75 9 180.000000 1.29703999e+00 3
70 68 79 80 9 0.000000 8.36799979e-01 3
70 68 79 81 9 180.000000 5.69023991e+00 1
70 68 79 81 9 0.000000 6.69439971e-01 2
70 68 79 81 9 0.000000 4.22584009e+00 3
69 68 82 83 9 0.000000 8.36799979e-01 3
69 68 82 84 9 0.000000 8.36799979e-01 3
69 68 82 85 9 0.000000 5.85759997e-01 3
70 68 82 83 9 0.000000 8.36799979e-01 3
70 68 82 84 9 0.000000 8.36799979e-01 3
70 68 82 85 9 180.000000 3.13800001e+00 1
70 68 82 85 9 0.000000 7.11279988e-01 2
70 68 82 85 9 180.000000 1.04600000e+00 3
79 68 82 83 9 0.000000 8.36799979e-01 3
79 68 82 84 9 0.000000 8.36799979e-01 3
79 68 82 85 9 0.000000 8.36799979e-01 3
68 70 66 71 9 0.000000 8.36799979e-01 3
66 70 68 69 9 0.000000 1.18825603e+00 3
66 70 68 79 9 0.000000 8.36799979e-01 3
66 70 68 82 9 0.000000 8.36799979e-01 3
66 71 73 74 9 0.000000 1.21335995e+00 1
66 71 73 74 9 0.000000 2.59407997e+00 2
66 71 73 74 9 0.000000 2.09199995e-01 3
72 71 73 74 9 0.000000 7.53120005e-01 3
66 71 75 76 9 0.000000 8.36799979e-01 3
66 71 75 77 9 0.000000 8.36799979e-01 3
66 71 75 79 9 180.000000 7.94960022e-01 3
72 71 75 76 9 0.000000 8.36799979e-01 3
72 71 75 77 9 0.000000 5.85759997e-01 3
72 71 75 79 9 0.000000 8.36799979e-01 3
73 71 75 76 9 0.000000 5.85759997e-01 3
73 71 75 77 9 180.000000 1.10875998e+01 1
73 71 75 77 9 180.000000 5.43919981e-01 3
73 71 75 79 9 0.000000 8.36799979e-01 3
74 73 71 75 9 0.000000 1.21335995e+00 1
74 73 71 75 9 0.000000 2.59407997e+00 2
74 73 71 75 9 0.000000 2.09199995e-01 3
71 75 77 78 9 0.000000 1.21335995e+00 1
71 75 77 78 9 0.000000 2.59407997e+00 2
71 75 77 78 9 0.000000 2.09199995e-01 3
76 75 77 78 9 0.000000 7.53120005e-01 3
71 75 79 80 9 0.000000 8.36799979e-01 3
71 75 79 81 9 0.000000 8.36799979e-01 3
76 75 79 80 9 0.000000 8.36799979e-01 3
76 75 79 81 9 0.000000 8.36799979e-01 3
77 75 79 80 9 0.000000 5.85759997e-01 3
77 75 79 81 9 180.000000 1.10875998e+01 1
77 75 79 81 9 180.000000 5.43919981e-01 3
78 77 75 79 9 0.000000 1.21335995e+00 1
78 77 75 79 9 0.000000 2.59407997e+00 2
78 77 75 79 9 0.000000 2.09199995e-01 3
75 79 68 82 9 0.000000 8.36799979e-01 3
80 79 68 82 9 0.000000 8.36799979e-01 3
81 79 68 82 9 0.000000 8.36799979e-01 3
68 79 75 71 9 180.000000 7.94960022e-01 3
68 79 75 76 9 0.000000 8.36799979e-01 3
68 79 75 77 9 0.000000 8.36799979e-01 3
68 79 81 87 9 180.000000 5.43919981e-01 1
68 79 81 87 9 180.000000 1.04600000e+00 2
68 79 81 87 9 180.000000 2.51040012e-01 3
75 79 81 87 9 180.000000 5.43919981e-01 1
75 79 81 87 9 180.000000 1.04600000e+00 2
75 79 81 87 9 180.000000 2.51040012e-01 3
80 79 81 87 9 0.000000 1.18825603e+00 3
79 81 87 88 9 0.000000 1.18825603e+00 3
79 81 87 91 9 180.000000 2.09199995e-01 1
79 81 87 91 9 0.000000 3.80744004e+00 2
79 81 87 91 9 180.000000 5.31368017e+00 3
79 81 87 92 9 180.000000 1.71544003e+00 1
79 81 87 92 9 180.000000 2.76144004e+00 2
79 81 87 92 9 0.000000 6.69439983e+00 3
68 82 85 86 9 0.000000 1.21335995e+00 1
68 82 85 86 9 0.000000 2.59407997e+00 2
68 82 85 86 9 0.000000 2.09199995e-01 3
83 82 85 86 9 0.000000 7.53120005e-01 3
84 82 85 86 9 0.000000 7.53120005e-01 3
81 87 91 89 9 180.000000 1.71544003e+00 1
81 87 91 89 9 0.000000 3.72375989e+00 2
81 87 91 89 9 0.000000 2.09199995e-01 3
88 87 91 89 9 0.000000 1.18825603e+00 3
81 87 92 93 9 0.000000 8.36799979e-01 3
81 87 92 94 9 180.000000 1.10875998e+01 1
81 87 92 94 9 180.000000 5.43919981e-01 3
81 87 92 96 9 0.000000 8.36799979e-01 3
88 87 92 93 9 0.000000 8.36799979e-01 3
88 87 92 94 9 0.000000 5.85759997e-01 3
88 87 92 96 9 0.000000 8.36799979e-01 3
91 87 92 93 9 0.000000 8.36799979e-01 3
91 87 92 94 9 180.000000 1.15059996e+01 1
91 87 92 94 9 180.000000 1.08783996e+00 2
91 87 92 94 9 0.000000 4.18399990e-01 3
91 87 92 96 9 180.000000 1.29703999e+00 3
90 89 100 96 9 0.000000 8.36799979e-01 3
90 89 100 101 9 0.000000 8.36799979e-01 3
90 89 100 102 9 0.000000 8.36799979e-01 3
91 89 100 96 9 180.000000 1.29703999e+00 3
91 89 100 101 9 0.000000 8.36799979e-01 3
91 89 100 102 9 180.000000 5.69023991e+00 1
91 89 100 102 9 0.000000 6.69439971e-01 2
91 89 100 102 9 0.000000 4.22584009e+00 3
90 89 103 104 9 0.000000 8.36799979e-01 3
90 89 103 105 9 0.000000 8.36799979e-01 3
90 89 103 106 9 0.000000 5.85759997e-01 3
91 89 103 104 9 0.000000 8.36799979e-01 3
91 89 103 105 9 0.000000 8.36799979e-01 3
91 89 103 106 9 180.000000 3.13800001e+00 1
91 89 103 106 9 0.000000 7.11279988e-01 2
91 89 103 106 9 180.000000 1.04600000e+00 3
100 89 103 104 9 0.000000 8.36799979e-01 3
100 89 103 105 9 0.000000 8.36799979e-01 3
100 89 103 106 9 0.000000 8.36799979e-01 3
89 91 87 92 9 0.000000 8.36799979e-01 3
87 91 89 90 9 0.000000 1.18825603e+00 3
87 91 89 100 9 0.000000 8.36799979e-01 3
87 91 89 103 9 0.000000 8.36799979e-01 3
87 92 94 95 9 0.000000 1.21335995e+00 1
87 92 94 95 9 0.000000 2.59407997e+00 2
87 92 94 95 9 0.000000 2.09199995e-01 3
93 92 94 95 9 0.000000 7.53120005e-01 3
87 92 96 97 9 0.000000 8.36799979e-01 3
87 92 96 98 9 0.000000 8.36799979e-01 3
87 92 96 100 9 180.000000 7.94960022e-01 3
93 92 96 97 9 0.000000 8.36799979e-01 3
93 92 96 98 9 0.000000 5.85759997e-01 3
93 92 96 100 9 0.000000 8.36799979e-01 3
94 92 96 97 9 0.000000 5.85759997e-01 3
94 92 96 98 9 180.000000 1.10875998e+01 1
94 92 96 98 9 180.000000 5.43919981e-01 3
94 92 96 100 9 0.000000 8.36799979e-01 3
95 94 92 96 9 0.000000 1.21335995e+00 1
95 94 92 96 9 0.000000 2.59407997e+00 2
95 94 92 96 9 0.000000 2.09199995e-01 3
92 96 98 99 9 0.000000 1.21335995e+00 1
92 96 98 99 9 0.000000 2.59407997e+00 2
92 96 98 99 9 0.000000 2.09199995e-01 3
97 96 98 99 9 0.000000 7.53120005e-01 3
92 96 100 101 9 0.000000 8.36799979e-01 3
92 96 100 102 9 0.000000 8.36799979e-01 3
97 96 100 101 9 0.000000 8.36799979e-01 3
97 96 100 102 9 0.000000 8.36799979e-01 3
98 96 100 101 9 0.000000 5.85759997e-01 3
98 96 100 102 9 180.000000 1.10875998e+01 1
98 96 100 102 9 180.000000 5.43919981e-01 3
99 98 96 100 9 0.000000 1.21335995e+00 1
99 98 96 100 9 0.000000 2.59407997e+00 2
99 98 96 100 9 0.000000 2.09199995e-01 3
96 100 89 103 9 0.000000 8.36799979e-01 3
101 100 89 103 9 0.000000 8.36799979e-01 3
102 100 89 103 9 0.000000 8.36799979e-01 3
89 100 96 92 9 180.000000 7.94960022e-01 3
89 100 96 97 9 0.000000 8.36799979e-01 3
89 100 96 98 9 0.000000 8.36799979e-01 3
89 100 102 108 9 180.000000 5.43919981e-01 1
89 100 102 108 9 180.000000 1.04600000e+00 2
89 100 102 108 9 180.000000 2.51040012e-01 3
96 100 102 108 9 180.000000 5.43919981e-01 1
96 100 102 108 9 180.000000 1.04600000e+00 2
96 100 102 108 9 180.000000 2.51040012e-01 3
101 100 102 108 9 0.000000 1.18825603e+00 3
100 102 108 109 9 0.000000 1.18825603e+00 3
100 102 108 112 9 180.000000 2.09199995e-01 1
100 102 108 112 9 0.000000 3.80744004e+00 2
100 102 108 112 9 180.000000 5.31368017e+00 3
100 102 108 113 9 180.000000 1.71544003e+00 1
100 102 108 113 9 180.000000 2.76144004e+00 2
100 102 108 113 9 0.000000 6.69439983e+00 3
89 103 106 107 9 0.000000 1.21335995e+00 1
89 103 106 107 9 0.000000 2.59407997e+00 2
89 103 106 107 9 0.000000 2.09199995e-01 3
104 103 106 107 9 0.000000 7.53120005e-01 3
105 103 106 107 9 0.000000 7.53120005e-01 3
102 108 112 110 9 180.000000 1.71544003e+00 1
102 108 112 110 9 0.000000 3.72375989e+00 2
102 108 112 110 9 0.000000 2.09199995e-01 3
109 108 112 110 9 0.000000 1.18825603e+00 3
102 108 113 114 9 0.000000 8.36799979e-01 3
102 108 113 115 9 180.000000 1.10875998e+01 1
102 108 113 115 9 180.000000 5.43919981e-01 3
102 108 113 117 9 0.000000 8.36799979e-01 3
109 108 113 114 9 0.000000 8.36799979e-01 3
109 108 113 115 9 0.000000 5.85759997e-01 3
109 108 113 117 9 0.000000 8.36799979e-01 3
112 108 113 114 9 0.000000 8.36799979e-01 3
112 108 113 115 9 180.000000 1.15059996e+01 1
112 108 113 115 9 180.000000 1.08783996e+00 2
112 108 113 115 9 0.000000 4.18399990e-01 3
112 108 113 117 9 180.000000 1.29703999e+00 3
111 110 121 117 9 0.000000 8.36799979e-01 3
111 110 121 122 9 0.000000 8.36799979e-01 3
111 110 121 123 9 0.000000 5.85759997e-01 3
112 110 121 117 9 180.000000 1.29703999e+00 3
112 110 121 122 9 0.000000 8.36799979e-01 3
112 110 121 123 9 180.000000 5.69023991e+00 1
112 110 121 123 9 0.000000 6.69439971e-01 2
112 110 121 123 9 0.000000 4.22584009e+00 3
111 110 125 126 9 0.000000 8.36799979e-01 3
111 110 125 127 9 0.000000 8.36799979e-01 3
111 110 125 128 9 0.000000 5.85759997e-01 3
112 110 125 126 9 0.000000 8.36799979e-01 3
112 110 125 127 9 0.000000 8.36799979e-01 3
112 110 125 128 9 180.000000 3.13800001e+00 1
112 110 125 128 9 0.000000 7.11279988e-01 2
112 110 125 128 9 180.000000 1.04600000e+00 3
121 110 125 126 9 0.000000 8.36799979e-01 3
121 110 125 127 9 0.000000 8.36799979e-01 3
121 110 125 128 9 0.000000 8.36799979e-01 3
110 112 108 113 9 0.000000 8.36799979e-01 3
108 112 110 111 9 0.000000 1.18825603e+00 3
108 112 110 121 9 0.000000 8.36799979e-01 3
108 112 110 125 9 0.000000 8.36799979e-01 3
108 113 115 116 9 0.000000 1.21335995e+00 1
108 113 115 116 9 0.000000 2.59407997e+00 2
108 113 115 116 9 0.000000 2.09199995e-01 3
114 113 115 116 9 0.000000 7.53120005e-01 3
108 113 117 118 9 0.000000 8.36799979e-01 3
108 113 117 119 9 0.000000 8.36799979e-01 3
108 113 117 121 9 180.000000 7.94960022e-01 3
114 113 117 118 9 0.000000 8.36799979e-01 3
114 113 117 119 9 0.000000 5.85759997e-01 3
114 113 117 121 9 0.000000 8.36799979e-01 3
115 113 117 118 9 0.000000 5.85759997e-01 3
115 113 117 119 9 180.000000 1.10875998e+01 1
115 113 117 119 9 180.000000 5.43919981e-01 3
115 113 117 121 9 0.000000 8.36799979e-01 3
116 115 113 117 9 0.000000 1.21335995e+00 1
116 115 113 117 9 0.000000 2.59407997e+00 2
116 115 113 117 9 0.000000 2.09199995e-01 3
113 117 119 120 9 0.000000 1.21335995e+00 1
113 117 119 120 9 0.000000 2.59407997e+00 2
113 117 119 120 9 0.000000 2.09199995e-01 3
118 117 119 120 9 0.000000 7.53120005e-01 3
113 117 121 122 9 0.000000 8.36799979e-01 3
113 117 121 123 9 0.000000 8.36799979e-01 3
118 117 121 122 9 0.000000 8.36799979e-01 3
118 117 121 123 9 0.000000 5.85759997e-01 3
119 117 121 122 9 0.000000 5.85759997e-01 3
119 117 121 123 9 180.000000 1.10875998e+01 1
119 117 121 123 9 180.000000 5.43919981e-01 3
120 119 117 121 9 0.000000 1.21335995e+00 1
120 119 117 121 9 0.000000 2.59407997e+00 2
120 119 117 121 9 0.000000 2.09199995e-01 3
117 121 110 125 9 0.000000 8.36799979e-01 3
122 121 110 125 9 0.000000 8.36799979e-01 3
123 121 110 125 9 0.000000 8.36799979e-01 3
110 121 117 113 9 180.000000 7.94960022e-01 3
110 121 117 118 9 0.000000 8.36799979e-01 3
110 121 117 119 9 0.000000 8.36799979e-01 3
110 121 123 124 9 0.000000 1.21335995e+00 1
110 121 123 124 9 0.000000 2.59407997e+00 2
110 121 123 124 9 0.000000 2.09199995e-01 3
117 121 123 124 9 0.000000 1.21335995e+00 1
117 121 123 124 9 0.000000 2.59407997e+00 2
117 121 123 124 9 0.000000 2.09199995e-01 3
122 121 123 124 9 0.000000 7.53120005e-01 3
110 125 128 129 9 0.000000 1.21335995e+00 1
110 125 128 129 9 0.000000 2.59407997e+00 2
110 125 128 129 9 0.000000 2.09199995e-01 3
126 125 128 129 9 0.000000 7.53120005e-01 3
127 125 128 129 9 0.000000 7.53120005e-01 3

[ pairs ]
1 6 1 2.05351607e-04 1.18778622e-07
1 11 1 1.65021702e-05 7.58667518e-10
1 13 1 2.05351607e-04 1.18778622e-07
1 14 1 8.88851762e-04 1.07706853e-06
1 16 1 2.51955120e-04 3.79310393e-07
1 19 1 2.51955120e-04 3.79310393e-07
2 4 1 5.58290640e-06 4.09339715e-11
2 5 1 2.05351607e-04 1.18778622e-07
2 9 1 1.39522090e-04 2.58476920e-08
2 10 1 6.97206240e-04 3.12392729e-07
2 12 1 2.05351607e-04 1.18778622e-07
3 5 1 8.88851762e-04 1.07706853e-06
3 9 1 6.97206240e-04 3.12392729e-07
3 10 1 3.11026420e-03 3.00895385e-06
3 12 1 8.88851762e-04 1.07706853e-06
4 7 1 2.46214313e-05 5.34067290e-10
4 8 1 1.65021702e-05 7.58667518e-10
5 8 1 2.51955120e-04 3.79310393e-07
5 13 1 2.05351607e-04 1.18778622e-07
5 14 1 8.88851762e-04 1.07706853e-06
5 23 1 1.65021702e-05 7.58667518e-10
5 24 1 2.51955120e-04 3.79310393e-07
6 12 1 2.05351607e-04 1.18778622e-07
6 17 1 1.39522090e-04 2.58476920e-08
6 18 1 4.01102036e-04 1.43301875e-07
6 20 1 1.23046921e-04 2.27955219e-08
6 21 1 1.23046921e-04 2.27955219e-08
6 22 1 6.97206240e-04 3.12392729e-07
7 9 1 4.01102036e-04 1.43301875e-07
7 10 1 1.83962565e-03 1.45896058e-06
7 12 1 5.29653335e-04 5.30068291e-07
7 17 1 4.01102036e-04 1.43301875e-07
7 18 1 1.08070031e-03 6.97844825e-07
7 20 1 3.53738782e-04 1.26380371e-07
7 21 1 3.53738782e-04 1.26380371e-07
7 22 1 1.83962565e-03 1.45896058e-06
8 15 1 1.65021702e-05 7.58667518e-10
8 17 1 2.05351607e-04 1.18778622e-07
8 18 1 5.29653335e-04 5.30068291e-07
9 11 1 5.58290640e-06 4.09339715e-11
9 13 1 1.39522090e-04 2.58476920e-08
9 14 1 6.97206240e-04 3.12392729e-07
9 16 1 2.05351607e-04 1.18778622e-07
10 13 1 6.97206240e-04 3.12392729e-07
10 14 1 3.11026420e-03 3.00895385e-06
10 16 1 8.88851762e-04 1.07706853e-06
11 12 1 1.65021702e-05 7.58667518e-10
12 19 1 2.51955120e-04 3.79310393e-07
12 24 1 2.51955120e-04 3.79310393e-07
13 15 1 5.58290640e-06 4.09339715e-11
13 17 1 1.39522090e-04 2.58476920e-08
13 18 1 4.01102036e-04 1.43301875e-07
14 17 1 6.97206240e-04 3.12392729e-07
14 18 1 1.83962565e-03 1.45896058e-06
15 16 1 1.65021702e-05 7.58667518e-10
16 20 1 1.81103096e-04 1.04752900e-07
16 21 1 1.81103096e-04 1.04752900e-07
16 22 1 8.88851762e-04 1.07706853e-06
16 25 1 2.05351607e-04 1.18778622e-07
16 28 1 5.29653335e-04 5.30068291e-07
16 29 1 2.51955120e-04 3.79310393e-07
17 19 1 2.05351607e-04 1.18778622e-07
17 24 1 2.05351607e-04 1.18778622e-07
18 19 1 5.29653335e-04 5.30068291e-07
18 26 1 5.29653335e-04 5.30068291e-07
18 30 1 4.01102036e-04 1.43301875e-07
18 31 1 1.83962565e-03 1.45896058e-06
18 33 1 5.29653335e-04 5.30068291e-07
20 23 1 4.92366098e-06 3.61003727e-11
21 23 1 4.92366098e-06 3.61003727e-11
24 27 1 2.05351607e-04 1.18778622e-07
24 32 1 1.65021702e-05 7.58667518e-10
24 34 1 2.05351607e-04 1.18778622e-07
24 35 1 8.88851762e-04 1.07706853e-06
24 37 1 2.51955120e-04 3.79310393e-07
24 40 1 2.51955120e-04 3.79310393e-07
25 26 1 2.05351607e-04 1.18778622e-07
25 30 1 1.39522090e-04 2.58476920e-08
25 31 1 6.97206240e-04 3.12392729e-07
25 33 1 2.05351607e-04 1.18778622e-07
26 29 1 2.51955120e-04 3.79310393e-07
26 34 1 2.05351607e-04 1.18778622e-07
26 35 1 8.88851762e-04 1.07706853e-06
26 44 1 1.65021702e-05 7.58667518e-10
26 45 1 2.51955120e-04 3.79310393e-07
27 33 1 2.05351607e-04 1.18778622e-07
27 38 1 1.39522090e-04 2.58476920e-08
27 39 1 4.01102036e-04 1.43301875e-07
27 41 1 1.23046921e-04 2.27955219e-08
27 42 1 1.23046921e-04 2.27955219e-08
27 43 1 6.97206240e-04 3.12392729e-07
28 30 1 4.01102036e-04 1.43301875e-07
28 31 1 1.83962565e-03 1.45896058e-06
28 33 1 5.29653335e-04 5.30068291e-07
28 38 1 4.01102036e-04 1.43301875e-07
28 39 1 1.08070031e-03 6.97844825e-07
28 41 1 3.53738782e-04 1.26380371e-07
28 42 1 3.53738782e-04 1.26380371e-07
28 43 1 1.83962565e-03 1.45896058e-06
29 36 1 1.65021702e-05 7.58667518e-10
29 38 1 2.05351607e-04 1.18778622e-07
29 39 1 5.29653335e-04 5.30068291e-07
30 32 1 5.58290640e-06 4.09339715e-11
30 34 1 1.39522090e-04 2.58476920e-08
30 35 1 6.97206240e-04 3.12392729e-07
30 37 1 2.05351607e-04 1.18778622e-07
31 34 1 6.97206240e-04 3.12392729e-07
31 35 1 3.11026420e-03 3.00895385e-06
31 37 1 8.88851762e-04 1.07706853e-06
32 33 1 1.65021702e-05 7.58667518e-10
33 40 1 2.51955120e-04 3.79310393e-07
33 45 1 2.51955120e-04 3.79310393e-07
34 36 1 5.58290640e-06 4.09339715e-11
34 38 1 1.39522090e-04 2.58476920e-08
34 39 1 4.01102036e-04 1.43301875e-07
35 38 1 6.97206240e-04 3.12392729e-07
35 39 1 1.83962565e-03 1.45896058e-06
36 37 1 1.65021702e-05 7.58667518e-10
37 41 1 1.81103096e-04 1.04752900e-07
37 42 1 1.81103096e-04 1.04752900e-07
37 43 1 8.88851762e-04 1.07706853e-06
37 46 1 2.05351607e-04 1.18778622e-07
37 49 1 5.29653335e-04 5.30068291e-07
37 50 1 2.51955120e-04 3.79310393e-07
38 40 1 2.05351607e-04 1.18778622e-07
38 45 1 2.05351607e-04 1.18778622e-07
39 40 1 5.29653335e-04 5.30068291e-07
39 47 1 5.29653335e-04 5.30068291e-07
39 51 1 4.01102036e-04 1.43301875e-07
39 52 1 1.83962565e-03 1.45896058e-06
39 54 1 5.29653335e-04 5.30068291e-07
41 44 1 4.92366098e-06 3.61003727e-11
42 44 1 4.92366098e-06 3.61003727e-11
45 48 1 2.05351607e-04 1.18778622e-07
45 53 1 1.65021702e-05 7.58667518e-10
45 55 1 2.05351607e-04 1.18778622e-07
45 56 1 8.88851762e-04 1.07706853e-06
45 58 1 2.51955120e-04 3.79310393e-07
45 61 1 2.51955120e-04 3.79310393e-07
46 47 1 2.05351607e-04 1.18778622e-07
46 51 1 1.39522090e-04 2.58476920e-08
46 52 1 6.97206240e-04 3.12392729e-07
46 54 1 2.05351607e-04 1.18778622e-07
47 50 1 2.51955120e-04 3.79310393e-07
47 55 1 2.05351607e-04 1.18778622e-07
47 56 1 8.88851762e-04 1.07706853e-06
47 65 1 1.65021702e-05 7.58667518e-10
47 66 1 2.51955120e-04 3.79310393e-07
48 54 1 2.05351607e-04 1.18778622e-07
48 59 1 1.39522090e-04 2.58476920e-08
48 60 1 4.01102036e-04 1.43301875e-07
48 62 1 1.23046921e-04 2.27955219e-08
48 63 1 1.23046921e-04 2.27955219e-08
48 64 1 6.97206240e-04 3.12392729e-07
49 51 1 4.01102036e-04 1.43301875e-07
49 52 1 1.83962565e-03 1.45896058e-06
49 54 1 5.29653335e-04 5.30068291e-07
49 59 1 4.01102036e-04 1.43301875e-07
49 60 1 1.08070031e-03 6.97844825e-07
49 62 1 3.53738782e-04 1.26380371e-07
49 63 1 3.53738782e-04 1.26380371e-07
49 64 1 1.83962565e-03 1.45896058e-06
50 57 1 1.65021702e-05 7.58667518e-10
50 59 1 2.05351607e-04 1.18778622e-07
50 60 1 5.29653335e-04 5.30068291e-07
51 53 1 5.58290640e-06 4.09339715e-11
51 55 1 1.39522090e-04 2.58476920e-08
51 56 1 6.97206240e-04 3.12392729e-07
51 58 1 2.05351607e-04 1.18778622e-07
52 55 1 6.97206240e-04 3.12392729e-07
52 56 1 3.11026420e-03 3.00895385e-06
52 58 1 8.88851762e-04 1.07706853e-06
53 54 1 1.65021702e-05 7.58667518e-10
54 61 1 2.51955120e-04 3.79310393e-07
54 66 1 2.51955120e-04 3.79310393e-07
55 57 1 5.58290640e-06 4.09339715e-11
55 59 1 1.39522090e-04 2.58476920e-08
55 60 1 4.01102036e-04 1.43301875e-07
56 59 1 6.97206240e-04 3.12392729e-07
56 60 1 1.83962565e-03 1.45896058e-06
57 58 1 1.65021702e-05 7.58667518e-10
58 62 1 1.81103096e-04 1.04752900e-07
58 63 1 1.81103096e-04 1.04752900e-07
58 64 1 8.88851762e-04 1.07706853e-06
58 67 1 2.05351607e-04 1.18778622e-07
58 70 1 5.29653335e-04 5.30068291e-07
58 71 1 2.51955120e-04 3.79310393e-07
59 61 1 2.05351607e-04 1.18778622e-07
59 66 1 2.05351607e-04 1.18778622e-07
60 61 1 5.29653335e-04 5.30068291e-07
60 68 1 5.29653335e-04 5.30068291e-07
60 72 1 4.01102036e-04 1.43301875e-07
60 73 1 1.83962565e-03 1.45896058e-06
60 75 1 5.29653335e-04 5.30068291e-07
62 65 1 4.92366098e-06 3.61003727e-11
63 65 1 4.92366098e-06 3.61003727e-11
66 69 1 2.05351607e-04 1.18778622e-07
66 74 1 1.65021702e-05 7.58667518e-10
66 76 1 2.05351607e-04 1.18778622e-07
66 77 1 8.88851762e-04 1.07706853e-06
66 79 1 2.51955120e-04 3.79310393e-07
66 82 1 2.51955120e-04 3.79310393e-07
67 68 1 2.05351607e-04 1.18778622e-07
67 72 1 1.39522090e-04 2.58476920e-08
67 73 1 6.97206240e-04 3.12392729e-07
67 75 1 2.05351607e-04 1.18778622e-07
68 71 1 2.51955120e-04 3.79310393e-07
68 76 1 2.05351607e-04 1.18778622e-07
68 77 1 8.88851762e-04 1.07706853e-06
68 86 1 1.65021702e-05 7.58667518e-10
68 87 1 2.51955120e-04 3.79310393e-07
69 75 1 2.05351607e-04 1.18778622e-07
69 80 1 1.39522090e-04 2.58476920e-08
69 81 1 4.01102036e-04 1.43301875e-07
69 83 1 1.23046921e-04 2.27955219e-08
69 84 1 1.23046921e-04 2.27955219e-08
69 85 1 6.97206240e-04 3.12392729e-07
70 72 1 4.01102036e-04 1.43301875e-07
70 73 1 1.83962565e-03 1.45896058e-06
70 75 1 5.29653335e-04 5.30068291e-07
70 80 1 4.01102036e-04 1.43301875e-07
70 81 1 1.08070031e-03 6.97844825e-07
70 83 1 3.53738782e-04 1.26380371e-07
70 84 1 3.53738782e-04 1.26380371e-07
70 85 1 1.83962565e-03 1.45896058e-06
71 78 1 1.65021702e-05 7.58667518e-10
71 80 1 2.05351607e-04 1.18778622e-07
71 81 1 5.29653335e-04 5.30068291e-07
72 74 1 5.58290640e-06 4.09339715e-11
72 76 1 1.39522090e-04 2.58476920e-08
72 77 1 6.97206240e-04 3.12392729e-07
72 79 1 2.05351607e-04 1.18778622e-07
73 76 1 6.97206240e-04 3.12392729e-07
73 77 1 3.11026420e-03 3.00895385e-06
73 79 1 8.88851762e-04 1.07706853e-06
74 75 1 1.65021702e-05 7.58667518e-10
75 82 1 2.51955120e-04 3.79310393e-07
75 87 1 2.51955120e-04 3.79310393e-07
76 78 1 5.58290640e-06 4.09339715e-11
76 80 1 1.39522090e-04 2.58476920e-08
76 81 1 4.01102036e-04 1.43301875e-07
77 80 1 6.97206240e-04 3.12392729e-07
77 81 1 1.83962565e-03 1.45896058e-06
78 79 1 1.65021702e-05 7.58667518e-10
79 83 1 1.81103096e-04 1.04752900e-07
79 84 1 1.81103096e-04 1.04752900e-07
79 85 1 8.88851762e-04 1.07706853e-06
79 88 1 2.05351607e-04 1.18778622e-07
79 91 1 5.29653335e-04 5.30068291e-07
79 92 1 2.51955120e-04 3.79310393e-07
80 82 1 2.05351607e-04 1.18778622e-07
80 87 1 2.05351607e-04 1.18778622e-07
81 82 1 5.29653335e-04 5.30068291e-07
81 89 1 5.29653335e-04 5.30068291e-07
81 93 1 4.01102036e-04 1.43301875e-07
81 94 1 1.83962565e-03 1.45896058e-06
81 96 1 5.29653335e-04 5.30068291e-07
83 86 1 4.92366098e-06 3.61003727e-11
84 86 1 4.92366098e-06 3.61003727e-11
87 90 1 2.05351607e-04 1.18778622e-07
87 95 1 1.65021702e-05 7.58667518e-10
87 97 1 2.05351607e-04 1.18778622e-07
87 98 1 8.88851762e-04 1.07706853e-06
87 100 1 2.51955120e-04 3.79310393e-07
87 103 1 2.51955120e-04 3.79310393e-07
88 89 1 2.05351607e-04 1.18778622e-07
88 93 1 1.39522090e-04 2.58476920e-08
88 94 1 6.97206240e-04 3.12392729e-07
88 96 1 2.05351607e-04 1.18778622e-07
89 92 1 2.51955120e-04 3.79310393e-07
89 97 1 2.05351607e-04 1.18778622e-07
89 98 1 8.88851762e-04 1.07706853e-06
89 107 1 1.65021702e-05 7.58667518e-10
89 108 1 2.51955120e-04 3.79310393e-07
90 96 1 2.05351607e-04 1.18778622e-07
90 101 1 1.39522090e-04 2.58476920e-08
90 102 1 4.01102036e-04 1.43301875e-07
90 104 1 1.23046921e-04 2.27955219e-08
90 105 1 1.23046921e-04 2.27955219e-08
90 106 1 6.97206240e-04 3.12392729e-07
91 93 1 4.01102036e-04 1.43301875e-07
91 94 1 1.83962565e-03 1.45896058e-06
91 96 1 5.29653335e-04 5.30068291e-07
91 101 1 4.01102036e-04 1.43301875e-07
91 102 1 1.08070031e-03 6.97844825e-07
91 104 1 3.53738782e-04 1.26380371e-07
91 105 1 3.53738782e-04 1.26380371e-07
91 106 1 1.83962565e-03 1.45896058e-06
92 99 1 1.65021702e-05 7.58667518e-10
92 101 1 2.05351607e-04 1.18778622e-07
92 102 1 5.29653335e-04 5.30068291e-07
93 95 1 5.58290640e-06 4.09339715e-11
93 97 1 1.39522090e-04 2.58476920e-08
93 98 1 6.97206240e-04 3.12392729e-07
93 100 1 2.05351607e-04 1.18778622e-07
94 97 1 6.97206240e-04 3.12392729e-07
94 98 1 3.11026420e-03 3.00895385e-06
94 100 1 8.88851762e-04 1.07706853e-06
95 96 1 1.65021702e-05 7.58667518e-10
96 103 1 2.51955120e-04 3.79310393e-07
96 108 1 2.51955120e-04 3.79310393e-07
97 99 1 5.58290640e-06 4.09339715e-11
97 101 1 1.39522090e-04 2.58476920e-08
97 102 1 4.01102036e-04 1.43301875e-07
98 101 1 6.97206240e-04 3.12392729e-07
98 102 1 1.83962565e-03 1.45896058e-06
99 100 1 1.65021702e-05 7.58667518e-10
100 104 1 1.81103096e-04 1.04752900e-07
100 105 1 1.81103096e-04 1.04752900e-07
100 106 1 8.88851762e-04 1.07706853e-06
100 109 1 2.05351607e-04 1.18778622e-07
100 112 1 5.29653335e-04 5.30068291e-07
100 113 1 2.51955120e-04 3.79310393e-07
101 103 1 2.05351607e-04 1.18778622e-07
101 108 1 2.05351607e-04 1.18778622e-07
102 103 1 5.29653335e-04 5.30068291e-07
102 110 1 5.29653335e-04 5.30068291e-07
102 114 1 4.01102036e-04 1.43301875e-07
102 115 1 1.83962565e-03 1.45896058e-06
102 117 1 5.29653335e-04 5.30068291e-07
104 107 1 4.92366098e-06 3.61003727e-11
105 107 1 4.92366098e-06 3.61003727e-11
108 111 1 2.05351607e-04 1.18778622e-07
108 116 1 1.65021702e-05 7.58667518e-10
108 118 1 2.05351607e-04 1.18778622e-07
108 119 1 8.88851762e-04 1.07706853e-06
108 121 1 2.51955120e-04 3.79310393e-07
108 125 1 2.51955120e-04 3.79310393e-07
109 110 1 2.05351607e-04 1.18778622e-07
109 114 1 1.39522090e-04 2.58476920e-08
109 115 1 6.97206240e-04 3.12392729e-07
109 117 1 2.05351607e-04 1.18778622e-07
110 113 1 2.51955120e-04 3.79310393e-07
110 118 1 2.05351607e-04 1.18778622e-07
110 119 1 8.88851762e-04 1.07706853e-06
110 124 1 1.65021702e-05 7.58667518e-10
110 129 1 1.65021702e-05 7.58667518e-10
111 117 1 2.05351607e-04 1.18778622e-07
111 122 1 1.39522090e-04 2.58476920e-08
111 123 1 6.97206240e-04 3.12392729e-07
111 126 1 1.23046921e-04 2.27955219e-08
111 127 1 1.23046921e-04 2.27955219e-08
111 128 1 6.97206240e-04 3.12392729e-07
112 114 1 4.01102036e-04 1.43301875e-07
112 115 1 1.83962565e-03 1.45896058e-06
112 117 1 5.29653335e-04 5.30068291e-07
112 122 1 4.01102036e-04 1.43301875e-07
112 123 1 1.83962565e-03 1.45896058e-06
112 126 1 3.53738782e-04 1.26380371e-07
112 127 1 3.53738782e-04 1.26380371e-07
112 128 1 1.83962565e-03 1.45896058e-06
113 120 1 1.65021702e-05 7.58667518e-10
113 122 1 2.05351607e-04 1.18778622e-07
113 123 1 8.88851762e-04 1.07706853e-06
114 116 1 5.58290640e-06 4.09339715e-11
114 118 1 1.39522090e-04 2.58476920e-08
114 119 1 6.97206240e-04 3.12392729e-07
114 121 1 2.05351607e-04 1.18778622e-07
115 118 1 6.97206240e-04 3.12392729e-07
115 119 1 3.11026420e-03 3.00895385e-06
115 121 1 8.88851762e-04 1.07706853e-06
116 117 1 1.65021702e-05 7.58667518e-10
117 124 1 1.65021702e-05 7.58667518e-10
117 125 1 2.51955120e-04 3.79310393e-07
118 120 1 5.58290640e-06 4.09339715e-11
118 122 1 1.39522090e-04 2.58476920e-08
118 123 1 6.97206240e-04 3.12392729e-07
119 122 1 6.97206240e-04 3.12392729e-07
119 123 1 3.11026420e-03 3.00895385e-06
120 121 1 1.65021702e-05 7.58667518e-10
121 126 1 1.81103096e-04 1.04752900e-07
121 127 1 1.81103096e-04 1.04752900e-07
121 128 1 8.88851762e-04 1.07706853e-06
122 124 1 5.58290640e-06 4.09339715e-11
122 125 1 2.05351607e-04 1.18778622e-07
123 125 1 8.88851762e-04 1.07706853e-06
126 129 1 4.92366098e-06 3.61003727e-11
127 129 1 4.92366098e-06 3.61003727e-11

[ constraints ]
1 2 1 1.11100003e-01
3 4 1 9.60000008e-02
5 6 1 1.11100003e-01
8 9 1 1.11100003e-01
10 11 1 9.60000008e-02
12 13 1 1.11100003e-01
14 15 1 9.60000008e-02
16 17 1 1.11100003e-01
19 20 1 1.11100003e-01
19 21 1 1.11100003e-01
22 23 1 9.60000008e-02
24 25 1 1.11100003e-01
26 27 1 1.11100003e-01
29 30 1 1.11100003e-01
31 32 1 9.60000008e-02
33 34 1 1.11100003e-01
35 36 1 9.60000008e-02
37 38 1 1.11100003e-01
40 41 1 1.11100003e-01
40 42 1 1.11100003e-01
43 44 1 9.60000008e-02
45 46 1 1.11100003e-01
47 48 1 1.11100003e-01
50 51 1 1.11100003e-01
52 53 1 9.60000008e-02
54 55 1 1.11100003e-01
56 57 1 9.60000008e-02
58 59 1 1.11100003e-01
61 62 1 1.11100003e-01
61 63 1 1.11100003e-01
64 65 1 9.60000008e-02
66 67 1 1.11100003e-01
68 69 1 1.11100003e-01
71 72 1 1.11100003e-01
73 74 1 9.60000008e-02
75 76 1 1.11100003e-01
77 78 1 9.60000008e-02
79 80 1 1.11100003e-01
82 83 1 1.11100003e-01
82 84 1 1.11100003e-01
85 86 1 9.60000008e-02
87 88 1 1.11100003e-01
89 90 1 1.11100003e-01
92 93 1 1.11100003e-01
94 95 1 9.60000008e-02
96 97 1 1.11100003e-01
98 99 1 9.60000008e-02
100 101 1 1.11100003e-01
103 104 1 1.11100003e-01
103 105 1 1.11100003e-01
106 107 1 9.60000008e-02
108 109 1 1.11100003e-01
110 111 1 1.11100003e-01
113 114 1 1.11100003e-01
115 116 1 9.60000008e-02
117 118 1 1.11100003e-01
119 120 1 9.60000008e-02
121 122 1 1.11100003e-01
123 124 1 9.60000008e-02
125 126 1 1.11100003e-01
125 127 1 1.11100003e-01
128 129 1 9.60000008e-02

[ exclusions ]
1 2 3 4 5 6 7 8 9 10 11 12 13 14 16 19
2 1 3 4 5 7 8 9 10 12
3 1 2 4 5 7 8 9 10 12
4 1 2 3 7 8
5 1 2 3 6 7 8 12 13 14 16 17 18 19 20 21 22 23 24
6 1 5 7 12 16 17 18 19 20 21 22
7 1 2 3 4 5 6 8 9 10 12 16 17 18 19 20 21 22
8 1 2 3 4 5 7 9 10 11 12 13 14 15 16 17 18
9 1 2 3 7 8 10 11 12 13 14 16
10 1 2 3 7 8 9 11 12 13 14 16
11 1 8 9 10 12
12 1 2 3 5 6 7 8 9 10 11 13 14 15 16 17 18 19 24
13 1 5 8 9 10 12 14 15 16 17 18
14 1 5 8 9 10 12 13 15 16 17 18
15 8 12 13 14 16
16 1 5 6 7 8 9 10 12 13 14 15 17 18 19 20 21 22 24 25 28 29
17 5 6 7 8 12 13 14 16 18 19 24
18 5 6 7 8 12 13 14 16 17 19 24 25 26 28 29 30 31 33
19 1 5 6 7 12 16 17 18 20 21 22 23
20 5 6 7 16 19 21 22 23
21 5 6 7 16 19 20 22 23
22 5 6 7 16 19 20 21 23
23 5 19 20 21 22
24 5 12 16 17 18 25 26 27 28 29 30 31 32 33 34 35 37 40
25 16 18 24 26 28 29 30 31 33
26 18 24 25 27 28 29 33 34 35 37 38 39 40 41 42 43 44 45
27 24 26 28 33 37 38 39 40 41 42 43
28 16 18 24 25 26 27 29 30 31 33 37 38 39 40 41 42 43
29 16 18 24 25 26 28 30 31 32 33 34 35 36 37 38 39
30 18 24 25 28 29 31 32 33 34 35 37
31 18 24 25 28 29 30 32 33 34 35 37
32 24 29 30 31 33
33 18 24 25 26 27 28 29 30 31 32 34 35 36 37 38 39 40 45
34 24 26 29 30 31 33 35 36 37 38 39
35 24 26 29 30 31 33 34 36 37 38 39
36 29 33 34 35 37
37 24 26 27 28 29 30 31 33 34 35 36 38 39 40 41 42 43 45 46 49 50
38 26 27 28 29 33 34 35 37 39 40 45
39 26 27 28 29 33 34 35 37 38 40 45 46 47 49 50 51 52 54
40 24 26 27 28 33 37 38 39 41 42 43 44
41 26 27 28 37 40 42 43 44
42 26 27 28 37 40 41 43 44
43 26 27 28 37 40 41 42 44
44 26 40 41 42 43
45 26 33 37 38 39 46 47 48 49 50 51 52 53 54 55 56 58 61
46 37 39 45 47 49 50 51 52 54
47 39 45 46 48 49 50 54 55 56 58 59 60 61 62 63 64 65 66
48 45 47 49 54 58 59 60 61 62 63 64
49 37 39 45 46 47 48 50 51 52 54 58 59 60 61 62 63 64
50 37 39 45 46 47 49 51 52 53 54 55 56 57 58 59 60
51 39 45 46 49 50 52 53 54 55 56 58
52 39 45 46 49 50 51 53 54 55 56 58
53 45 50 51 52 54
54 39 45 46 47 48 49 50 51 52 53 55 56 57 58 59 60 61 66
55 45 47 50 51 52 54 56 57 58 59 60
56 45 47 50 51 52 54 55 57 58 59 60
57 50 54 55 56 58
58 45 47 48 49 50 51 52 54 55 56 57 59 60 61 62 63 64 66 67 70 71
59 47 48 49 50 54 55 56 58 60 61 66
60 47 48 49 50 54 55 56 58 59 61 66 67 68 70 71 72 73 75
61 45 47 48 49 54 58 59 60 62 63 64 65
62 47 48 49 58 61 63 64 65
63 47 48 49 58 61 62 64 65
64 47 48 49 58 61 62 63 65
65 47 61 62 63 64
66 47 54 58 59 60 67 68 69 70 71 72 73 74 75 76 77 79 82
67 58 60 66 68 70 71 72 73 75
68 60 66 67 69 70 71 75 76 77 79 80 81 82 83 84 85 86 87
69 66 68 70 75 79 80 81 82 83 84 85
70 58 60 66 67 68 69 71 72 73 75 79 80 81 82 83 84 85
71 58 60 66 67 68 70 72 73 74 75 76 77 78 79 80 81
72 60 66 67 70 71 73 74 75 76 77 79
73 60 66 67 70 71 72 74 75 76 77 79
74 66 71 72 73 75
75 60 66 67 68 69 70 71 72 73 74 76 77 78 79 80 81 82 87
76 66 68 71 72 73 75 77 78 79 80 81
77 66 68 71 72 73 75 76 78 79 80 81
78 71 75 76 77 79
79 66 68 69 70 71 72 73 75 76 77 78 80 81 82 83 84 85 87 88 91 92
80 68 69 70 71 75 76 77 79 81 82 87
81 68 69 70 71 75 76 77 79 80 82 87 88 89 91 92 93 94 96
82 66 68 69 70 75 79 80 81 83 84 85 86
83 68 69 70 79 82 84 85 86
84 68 69 70 79 82 83 85 86
85 68 69 70 79 82 83 84 86
86 68 82 83 84 85
87 68 75 79 80 81 88 89 90 91 92 93 94 95 96 97 98 100 103
88 79 81 87 89 91 92 93 94 96
89 81 87 88 90 91 92 96 97 98 100 101 102 103 104 105 106 107 108
90 87 89 91 96 100 101 102 103 104 105 106
91 79 81 87 88 89 90 92 93 94 96 100 101 102 103 104 105 106
92 79 81 87 88 89 91 93 94 95 96 97 98 99 100 101 102
93 81 87 88 91 92 94 95 96 97 98 100
94 81 87 88 91 92 93 95 96 97 98 100
95 87 92 93 94 96
96 81 87 88 89 90 91 92 93 94 95 97 98 99 100 101 102 103 108
97 87 89 92 93 94 96 98 99 100 101 102
98 87 89 92 93 94 96 97 99 100 101 102
99 92 96 97 98 100
100 87 89 90 91 92 93 94 96 97 98 99 101 102 103 104 105 106 108 109 112 113
101 89 90 91 92 96 97 98 100 102 103 108
102 89 90 91 92 96 97 98 100 101 103 108 109 110 112 113 114 115 117
103 87 89 90 91 96 100 101 102 104 105 106 107
104 89 90 91 100 103 105 106 107
105 89 90 91 100 103 104 106 107
106 89 90 91 100 103 104 105 107
107 89 103 104 105 106
108 89 96 100 101 102 109 110 111 112 113 114 115 116 117 118 119 121 125
109 100 102 108 110 112 113 114 115 117
110 102 108 109 111 112 113 117 118 119 121 122 123 124 125 126 127 128 129
111 108 110 112 117 121 122 123 125 126 127 128
112 100 102 108 109 110 111 113 114 115 117 121 122 123 125 126 127 128
113 100 102 108 109 110 112 114 115 116 117 118 119 120 121 122 123
114 102 108 109 112 113 115 116 117 118 119 121
115 102 108 109 112 113 114 116 117 118 119 121
116 108 113 114 115 117
117 102 108 109 110 111 112 113 114 115 116 118 119 120 121 122 123 124 125
118 108 110 113 114 115 117 119 120 121 122 123
119 108 110 113 114 115 117 118 120 121 122 123
120 113 117 118 119 121
121 108 110 111 112 113 114 115 117 118 119 120 122 123 124 125 126 127 128
122 110 111 112 113 117 118 119 121 123 124 125
123 110 111 112 113 117 118 119 121 122 124 125
124 110 117 121 122 123
125 108 110 111 112 117 121 122 123 126 127 128 129
126 110 111 112 121 125 127 128 129
127 110 111 112 121 125 126 128 129
128 110 111 112 121 125 126 127 129
129 110 125 126 127 128

[ moleculetype ]
TIP3 3

[ atoms ]
     1 OT          1 TIP3   OH2         1  -0.834000   15.99940
     2 HT          1 TIP3   H1          2   0.417000    1.00800
     3 HT          1 TIP3   H2          3   0.417000    1.00800

[ settles ]
1 1 9.57200006e-02 1.51390001e-01

[ exclusions ]
1 2 3
2 1 3
3 1 2

[ system ]
rebuilt from tpr

[ molecules ]
CARB 1
