;
;   File sc6.top  was generated
;   By user: aldo (1000)
;   On host:univac 
;   At date:Fri. September  5 13:06:54 2026 
;
;   This is a standalone topology file
;
;   Created by:
;   ParmEd:       -, VERSION4.3.0 
;   Executable:   -
;   Library dir:  /usr/local/gromacs/share/gromacs/top
;   Command line:
;     -
;

[ defaults ]
; nbfunc        comb-rule       gen-pairs       fudgeLJ fudgeQQ
1               2               yes             1            1           

[ atomtypes ]
; name    at.num    mass    charge ptype  sigma      epsilon
Ho             1   1.008000  0.00000000  A    0.035635949        0.12552
Oh             8  16.000000  0.00000000  A     0.30664734      0.8803136
Cg             6  12.010000  0.00000000  A     0.33996695      0.4577296
H2             1   1.008000  0.00000000  A     0.22931733      0.0656888
H1             1   1.008000  0.00000000  A      0.2471353      0.0656888
Os             8  16.000000  0.00000000  A     0.30000123        0.71128
OW             8  16.000000  0.00000000  A     0.31507524       0.635968
HW             1   1.008000  0.00000000  A              0              0


[ moleculetype ]
; Name            nrexcl
system1          3

[ atoms ]
;   nr       type  resnr residue  atom   cgnr    charge       mass  typeB    chargeB      massB
; residue    1 ROH rtp ROH q -0.2
    1         Ho      1    ROH    HO1      1 0.44500000   1.008000   ; qtot 0.445000
    2         Oh      1    ROH     O1      2 -0.63900000  16.000000   ; qtot -0.194000
; residue    2 4GA rtp 4GA q -0.0
    3         Cg      2    4GA     C1      3 0.50900000  12.010000   ; qtot 0.315000
    4         H2      2    4GA     H1      4 0.00000000   1.008000   ; qtot 0.315000
    5         Cg      2    4GA     C2      5 0.24600000  12.010000   ; qtot 0.561000
    6         H1      2    4GA     H2      6 0.00000000   1.008000   ; qtot 0.561000
    7         Oh      2    4GA     O2      7 -0.71300000  16.000000   ; qtot -0.152000
    8         Ho      2    4GA    H2O      8 0.43700000   1.008000   ; qtot 0.285000
    9         Cg      2    4GA     C3      9 0.28600000  12.010000   ; qtot 0.571000
   10         H1      2    4GA     H3     10 0.00000000   1.008000   ; qtot 0.571000
   11         Oh      2    4GA     O3     11 -0.69900000  16.000000   ; qtot -0.128000
   12         Ho      2    4GA    H3O     12 0.42700000   1.008000   ; qtot 0.299000
   13         Cg      2    4GA     C4     13 0.25400000  12.010000   ; qtot 0.553000
   14         H1      2    4GA     H4     14 0.00000000   1.008000   ; qtot 0.553000
   15         Cg      2    4GA     C5     15 0.28300000  12.010000   ; qtot 0.836000
   16         H1      2    4GA     H5     16 0.00000000   1.008000   ; qtot 0.836000
   17         Cg      2    4GA     C6     17 0.27600000  12.010000   ; qtot 1.112000
   18         H1      2    4GA    H62     18 0.00000000   1.008000   ; qtot 1.112000
   19         H1      2    4GA    H61     19 0.00000000   1.008000   ; qtot 1.112000
   20         Oh      2    4GA     O6     20 -0.68200000  16.000000   ; qtot 0.430000
   21         Ho      2    4GA    H6O     21 0.41800000   1.008000   ; qtot 0.848000
   22         Os      2    4GA     O5     22 -0.57400000  16.000000   ; qtot 0.274000
   23         Os      2    4GA     O4     23 -0.46800000  16.000000   ; qtot -0.194000
; residue    3 4GA rtp 4GA q -0.0
   24         Cg      3    4GA     C1     24 0.50900000  12.010000   ; qtot 0.315000
   25         H2      3    4GA     H1     25 0.00000000   1.008000   ; qtot 0.315000
   26         Cg      3    4GA     C2     26 0.24600000  12.010000   ; qtot 0.561000
   27         H1      3    4GA     H2     27 0.00000000   1.008000   ; qtot 0.561000
   28         Oh      3    4GA     O2     28 -0.71300000  16.000000   ; qtot -0.152000
   29         Ho      3    4GA    H2O     29 0.43700000   1.008000   ; qtot 0.285000
   30         Cg      3    4GA     C3     30 0.28600000  12.010000   ; qtot 0.571000
   31         H1      3    4GA     H3     31 0.00000000   1.008000   ; qtot 0.571000
   32         Oh      3    4GA     O3     32 -0.69900000  16.000000   ; qtot -0.128000
   33         Ho      3    4GA    H3O     33 0.42700000   1.008000   ; qtot 0.299000
   34         Cg      3    4GA     C4     34 0.25400000  12.010000   ; qtot 0.553000
   35         H1      3    4GA     H4     35 0.00000000   1.008000   ; qtot 0.553000
   36         Cg      3    4GA     C5     36 0.28300000  12.010000   ; qtot 0.836000
   37         H1      3    4GA     H5     37 0.00000000   1.008000   ; qtot 0.836000
   38         Cg      3    4GA     C6     38 0.27600000  12.010000   ; qtot 1.112000
   39         H1      3    4GA    H62     39 0.00000000   1.008000   ; qtot 1.112000
   40         H1      3    4GA    H61     40 0.00000000   1.008000   ; qtot 1.112000
   41         Oh      3    4GA     O6     41 -0.68200000  16.000000   ; qtot 0.430000
   42         Ho      3    4GA    H6O     42 0.41800000   1.008000   ; qtot 0.848000
   43         Os      3    4GA     O5     43 -0.57400000  16.000000   ; qtot 0.274000
   44         Os      3    4GA     O4     44 -0.46800000  16.000000   ; qtot -0.194000
; residue    4 4GA rtp 4GA q -0.0
   45         Cg      4    4GA     C1     45 0.50900000  12.010000   ; qtot 0.315000
   46         H2      4    4GA     H1     46 0.00000000   1.008000   ; qtot 0.315000
   47         Cg      4    4GA     C2     47 0.24600000  12.010000   ; qtot 0.561000
   48         H1      4    4GA     H2     48 0.00000000   1.008000   ; qtot 0.561000
   49         Oh      4    4GA     O2     49 -0.71300000  16.000000   ; qtot -0.152000
   50         Ho      4    4GA    H2O     50 0.43700000   1.008000   ; qtot 0.285000
   51         Cg      4    4GA     C3     51 0.28600000  12.010000   ; qtot 0.571000
   52         H1      4    4GA     H3     52 0.00000000   1.008000   ; qtot 0.571000
   53         Oh      4    4GA     O3     53 -0.69900000  16.000000   ; qtot -0.128000
   54         Ho      4    4GA    H3O     54 0.42700000   1.008000   ; qtot 0.299000
   55         Cg      4    4GA     C4     55 0.25400000  12.010000   ; qtot 0.553000
   56         H1      4    4GA     H4     56 0.00000000   1.008000   ; qtot 0.553000
   57         Cg      4    4GA     C5     57 0.28300000  12.010000   ; qtot 0.836000
   58         H1      4    4GA     H5     58 0.00000000   1.008000   ; qtot 0.836000
   59         Cg      4    4GA     C6     59 0.27600000  12.010000   ; qtot 1.112000
   60         H1      4    4GA    H62     60 0.00000000   1.008000   ; qtot 1.112000
   61         H1      4    4GA    H61     61 0.00000000   1.008000   ; qtot 1.112000
   62         Oh      4    4GA     O6     62 -0.68200000  16.000000   ; qtot 0.430000
   63         Ho      4    4GA    H6O     63 0.41800000   1.008000   ; qtot 0.848000
   64         Os      4    4GA     O5     64 -0.57400000  16.000000   ; qtot 0.274000
   65         Os      4    4GA     O4     65 -0.46800000  16.000000   ; qtot -0.194000
; residue    5 4GA rtp 4GA q -0.0
   66         Cg      5    4GA     C1     66 0.50900000  12.010000   ; qtot 0.315000
   67         H2      5    4GA     H1     67 0.00000000   1.008000   ; qtot 0.315000
   68         Cg      5    4GA     C2     68 0.24600000  12.010000   ; qtot 0.561000
   69         H1      5    4GA     H2     69 0.00000000   1.008000   ; qtot 0.561000
   70         Oh      5    4GA     O2     70 -0.71300000  16.000000   ; qtot -0.152000
   71         Ho      5    4GA    H2O     71 0.43700000   1.008000   ; qtot 0.285000
   72         Cg      5    4GA     C3     72 0.28600000  12.010000   ; qtot 0.571000
   73         H1      5    4GA     H3     73 0.00000000   1.008000   ; qtot 0.571000
   74         Oh      5    4GA     O3     74 -0.69900000  16.000000   ; qtot -0.128000
   75         Ho      5    4GA    H3O     75 0.42700000   1.008000   ; qtot 0.299000
   76         Cg      5    4GA     C4     76 0.25400000  12.010000   ; qtot 0.553000
   77         H1      5    4GA     H4     77 0.00000000   1.008000   ; qtot 0.553000
   78         Cg      5    4GA     C5     78 0.28300000  12.010000   ; qtot 0.836000
   79         H1      5    4GA     H5     79 0.00000000   1.008000   ; qtot 0.836000
   80         Cg      5    4GA     C6     80 0.27600000  12.010000   ; qtot 1.112000
   81         H1      5    4GA    H62     81 0.00000000   1.008000   ; qtot 1.112000
   82         H1      5    4GA    H61     82 0.00000000   1.008000   ; qtot 1.112000
   83         Oh      5    4GA     O6     83 -0.68200000  16.000000   ; qtot 0.430000
   84         Ho      5    4GA    H6O     84 0.41800000   1.008000   ; qtot 0.848000
   85         Os      5    4GA     O5     85 -0.57400000  16.000000   ; qtot 0.274000
   86         Os      5    4GA     O4     86 -0.46800000  16.000000   ; qtot -0.194000
; residue    6 4GA rtp 4GA q -0.0
   87         Cg      6    4GA     C1     87 0.50900000  12.010000   ; qtot 0.315000
   88         H2      6    4GA     H1     88 0.00000000   1.008000   ; qtot 0.315000
   89         Cg      6    4GA     C2     89 0.24600000  12.010000   ; qtot 0.561000
   90         H1      6    4GA     H2     90 0.00000000   1.008000   ; qtot 0.561000
   91         Oh      6    4GA     O2     91 -0.71300000  16.000000   ; qtot -0.152000
   92         Ho      6    4GA    H2O     92 0.43700000   1.008000   ; qtot 0.285000
   93         Cg      6    4GA     C3     93 0.28600000  12.010000   ; qtot 0.571000
   94         H1      6    4GA     H3     94 0.00000000   1.008000   ; qtot 0.571000
   95         Oh      6    4GA     O3     95 -0.69900000  16.000000   ; qtot -0.128000
   96         Ho      6    4GA    H3O     96 0.42700000   1.008000   ; qtot 0.299000
   97         Cg      6    4GA     C4     97 0.25400000  12.010000   ; qtot 0.553000
   98         H1      6    4GA     H4     98 0.00000000   1.008000   ; qtot 0.553000
   99         Cg      6    4GA     C5     99 0.28300000  12.010000   ; qtot 0.836000
  100         H1      6    4GA     H5    100 0.00000000   1.008000   ; qtot 0.836000
  101         Cg      6    4GA     C6    101 0.27600000  12.010000   ; qtot 1.112000
  102         H1      6    4GA    H62    102 0.00000000   1.008000   ; qtot 1.112000
  103         H1      6    4GA    H61    103 0.00000000   1.008000   ; qtot 1.112000
  104         Oh      6    4GA     O6    104 -0.68200000  16.000000   ; qtot 0.430000
  105         Ho      6    4GA    H6O    105 0.41800000   1.008000   ; qtot 0.848000
  106         Os      6    4GA     O5    106 -0.57400000  16.000000   ; qtot 0.274000
  107         Os      6    4GA     O4    107 -0.46800000  16.000000   ; qtot -0.194000
; residue    7 0GA rtp 0GA q 0.2
  108         Cg      7    0GA     C1    108 0.50900000  12.010000   ; qtot 0.315000
  109         H2      7    0GA     H1    109 0.00000000   1.008000   ; qtot 0.315000
  110         Cg      7    0GA     C2    110 0.24600000  12.010000   ; qtot 0.561000
  111         H1      7    0GA     H2    111 0.00000000   1.008000   ; qtot 0.561000
  112         Cg      7    0GA     C3    112 0.28600000  12.010000   ; qtot 0.847000
  113         H1      7    0GA     H3    113 0.00000000   1.008000   ; qtot 0.847000
  114         Cg      7    0GA     C4    114 0.25400000  12.010000   ; qtot 1.101000
  115         H1      7    0GA     H4    115 0.00000000   1.008000   ; qtot 1.101000
  116         Cg      7    0GA     C5    116 0.28300000  12.010000   ; qtot 1.384000
  117         H1      7    0GA     H5    117 0.00000000   1.008000   ; qtot 1.384000
  118         Cg      7    0GA     C6    118 0.27600000  12.010000   ; qtot 1.660000
  119         H1      7    0GA    H62    119 0.00000000   1.008000   ; qtot 1.660000
  120         H1      7    0GA    H61    120 0.00000000   1.008000   ; qtot 1.660000
  121         Oh      7    0GA     O6    121 -0.68200000  16.000000   ; qtot 0.978000
  122         Ho      7    0GA    H6O    122 0.41800000   1.008000   ; qtot 1.396000
  123         Os      7    0GA     O5    123 -0.57400000  16.000000   ; qtot 0.822000
  124         Oh      7    0GA     O4    124 -0.71000000  16.000000   ; qtot 0.112000
  125         Ho      7    0GA    H4O    125 0.43600000   1.008000   ; qtot 0.548000
  126         Oh      7    0GA     O3    126 -0.69900000  16.000000   ; qtot -0.151000
  127         Ho      7    0GA    H3O    127 0.42700000   1.008000   ; qtot 0.276000
  128         Oh      7    0GA     O2    128 -0.71300000  16.000000   ; qtot -0.437000
  129         Ho      7    0GA    H2O    129 0.43700000   1.008000   ; qtot -0.000000

[ bonds ]
;    ai     aj funct         c0         c1         c2         c3
      2      3     1   0.14300 267776.000000
     23     24     1   0.14600 238488.000000
     17     20     1   0.14300 267776.000000
     15     17     1   0.15200 259408.000000
     15     22     1   0.14600 238488.000000
     13     15     1   0.15200 259408.000000
     13     23     1   0.14600 238488.000000
      9     11     1   0.14300 267776.000000
      9     13     1   0.15200 259408.000000
      5      7     1   0.14300 267776.000000
      5      9     1   0.15200 259408.000000
      3      5     1   0.15200 259408.000000
      3     22     1   0.14600 238488.000000
     44     45     1   0.14600 238488.000000
     38     41     1   0.14300 267776.000000
     36     38     1   0.15200 259408.000000
     36     43     1   0.14600 238488.000000
     34     36     1   0.15200 259408.000000
     34     44     1   0.14600 238488.000000
     30     32     1   0.14300 267776.000000
     30     34     1   0.15200 259408.000000
     26     28     1   0.14300 267776.000000
     26     30     1   0.15200 259408.000000
     24     26     1   0.15200 259408.000000
     24     43     1   0.14600 238488.000000
     65     66     1   0.14600 238488.000000
     59     62     1   0.14300 267776.000000
     57     59     1   0.15200 259408.000000
     57     64     1   0.14600 238488.000000
     55     57     1   0.15200 259408.000000
     55     65     1   0.14600 238488.000000
     51     53     1   0.14300 267776.000000
     51     55     1   0.15200 259408.000000
     47     49     1   0.14300 267776.000000
     47     51     1   0.15200 259408.000000
     45     47     1   0.15200 259408.000000
     45     64     1   0.14600 238488.000000
     86     87     1   0.14600 238488.000000
     80     83     1   0.14300 267776.000000
     78     80     1   0.15200 259408.000000
     78     85     1   0.14600 238488.000000
     76     78     1   0.15200 259408.000000
     76     86     1   0.14600 238488.000000
     72     74     1   0.14300 267776.000000
     72     76     1   0.15200 259408.000000
     68     70     1   0.14300 267776.000000
     68     72     1   0.15200 259408.000000
     66     68     1   0.15200 259408.000000
     66     85     1   0.14600 238488.000000
    107    108     1   0.14600 238488.000000
    101    104     1   0.14300 267776.000000
     99    101     1   0.15200 259408.000000
     99    106     1   0.14600 238488.000000
     97     99     1   0.15200 259408.000000
     97    107     1   0.14600 238488.000000
     93     95     1   0.14300 267776.000000
     93     97     1   0.15200 259408.000000
     89     91     1   0.14300 267776.000000
     89     93     1   0.15200 259408.000000
     87     89     1   0.15200 259408.000000
     87    106     1   0.14600 238488.000000
    118    121     1   0.14300 267776.000000
    116    118     1   0.15200 259408.000000
    116    123     1   0.14600 238488.000000
    114    116     1   0.15200 259408.000000
    114    124     1   0.14300 267776.000000
    112    114     1   0.15200 259408.000000
    112    126     1   0.14300 267776.000000
    110    112     1   0.15200 259408.000000
    110    128     1   0.14300 267776.000000
    108    110     1   0.15200 259408.000000
    108    123     1   0.14600 238488.000000
      1      2     1   0.09600 462750.400000
     20     21     1   0.09600 462750.400000
     17     18     1   0.10900 284512.000000
     17     19     1   0.10900 284512.000000
     15     16     1   0.10900 284512.000000
     13     14     1   0.10900 284512.000000
     11     12     1   0.09600 462750.400000
      9     10     1   0.10900 284512.000000
      7      8     1   0.09600 462750.400000
      5      6     1   0.10900 284512.000000
      3      4     1   0.10900 284512.000000
     41     42     1   0.09600 462750.400000
     38     39     1   0.10900 284512.000000
     38     40     1   0.10900 284512.000000
     36     37     1   0.10900 284512.000000
     34     35     1   0.10900 284512.000000
     32     33     1   0.09600 462750.400000
     30     31     1   0.10900 284512.000000
     28     29     1   0.09600 462750.400000
     26     27     1   0.10900 284512.000000
     24     25     1   0.10900 284512.000000
     62     63     1   0.09600 462750.400000
     59     60     1   0.10900 284512.000000
     59     61     1   0.10900 284512.000000
     57     58     1   0.10900 284512.000000
     55     56     1   0.10900 284512.000000
     53     54     1   0.09600 462750.400000
     51     52     1   0.10900 284512.000000
     49     50     1   0.09600 462750.400000
     47     48     1   0.10900 284512.000000
     45     46     1   0.10900 284512.000000
     83     84     1   0.09600 462750.400000
     80     81     1   0.10900 284512.000000
     80     82     1   0.10900 284512.000000
     78     79     1   0.10900 284512.000000
     76     77     1   0.10900 284512.000000
     74     75     1   0.09600 462750.400000
     72     73     1   0.10900 284512.000000
     70     71     1   0.09600 462750.400000
     68     69     1   0.10900 284512.000000
     66     67     1   0.10900 284512.000000
    104    105     1   0.09600 462750.400000
    101    102     1   0.10900 284512.000000
    101    103     1   0.10900 284512.000000
     99    100     1   0.10900 284512.000000
     97     98     1   0.10900 284512.000000
     95     96     1   0.09600 462750.400000
     93     94     1   0.10900 284512.000000
     91     92     1   0.09600 462750.400000
     89     90     1   0.10900 284512.000000
     87     88     1   0.10900 284512.000000
    128    129     1   0.09600 462750.400000
    126    127     1   0.09600 462750.400000
    124    125     1   0.09600 462750.400000
    121    122     1   0.09600 462750.400000
    118    119     1   0.10900 284512.000000
    118    120     1   0.10900 284512.000000
    116    117     1   0.10900 284512.000000
    114    115     1   0.10900 284512.000000
    112    113     1   0.10900 284512.000000
    110    111     1   0.10900 284512.000000
    108    109     1   0.10900 284512.000000

[ pairs ]
;    ai     aj funct         c0         c1         c2         c3
      2      7     1
      2      9     1
      2     15     1
     23     28     1
     23     30     1
     23     36     1
     22     23     1
     20     22     1
     17     23     1
     15     24     1
     13     20     1
     13     26     1
     13     43     1
     11     15     1
     11     23     1
      9     22     1
      9     17     1
      9     24     1
      7     22     1
      7     11     1
      7     13     1
      5     15     1
      5     23     1
      3     11     1
      3     13     1
      3     17     1
     44     49     1
     44     51     1
     44     57     1
     43     44     1
     41     43     1
     38     44     1
     36     45     1
     34     41     1
     34     47     1
     34     64     1
     32     36     1
     32     44     1
     30     43     1
     30     38     1
     30     45     1
     28     43     1
     28     32     1
     28     34     1
     26     36     1
     26     44     1
     24     32     1
     24     34     1
     24     38     1
     65     70     1
     65     72     1
     65     78     1
     64     65     1
     62     64     1
     59     65     1
     57     66     1
     55     62     1
     55     68     1
     55     85     1
     53     57     1
     53     65     1
     51     64     1
     51     59     1
     51     66     1
     49     64     1
     49     53     1
     49     55     1
     47     57     1
     47     65     1
     45     53     1
     45     55     1
     45     59     1
     86     91     1
     86     93     1
     86     99     1
     85     86     1
     83     85     1
     80     86     1
     78     87     1
     76     83     1
     76     89     1
     76    106     1
     74     78     1
     74     86     1
     72     85     1
     72     80     1
     72     87     1
     70     85     1
     70     74     1
     70     76     1
     68     78     1
     68     86     1
     66     74     1
     66     76     1
     66     80     1
    107    112     1
    107    128     1
    107    116     1
    106    107     1
    104    106     1
    101    107     1
     99    108     1
     97    104     1
     97    110     1
     97    123     1
     95     99     1
     95    107     1
     93    106     1
     93    101     1
     93    108     1
     91    106     1
     91     95     1
     91     97     1
     89     99     1
     89    107     1
     87     95     1
     87     97     1
     87    101     1
    126    128     1
    124    126     1
    123    124     1
    123    128     1
    121    123     1
    118    124     1
    116    126     1
    114    128     1
    114    121     1
    112    123     1
    112    118     1
    110    116     1
    110    124     1
    108    114     1
    108    126     1
    108    118     1
      2      6     1
      1      4     1
      1      5     1
      1     22     1
     23     27     1
     19     22     1
     19     21     1
     18     22     1
     18     21     1
     16     23     1
     16     18     1
     16     19     1
     16     20     1
     15     21     1
     14     16     1
     14     17     1
     14     22     1
     14     24     1
     13     18     1
     13     19     1
     13     25     1
     12     13     1
     11     14     1
     10     12     1
     10     14     1
     10     15     1
     10     23     1
      9     16     1
      8      9     1
      7     10     1
      6     22     1
      6      8     1
      6     10     1
      6     11     1
      6     13     1
      5     12     1
      5     14     1
      4      6     1
      4      7     1
      4      9     1
      4     15     1
      3      8     1
      3     10     1
      3     16     1
     44     48     1
     40     43     1
     40     42     1
     39     43     1
     39     42     1
     37     44     1
     37     39     1
     37     40     1
     37     41     1
     36     42     1
     35     37     1
     35     38     1
     35     43     1
     35     45     1
     34     39     1
     34     40     1
     34     46     1
     33     34     1
     32     35     1
     31     33     1
     31     35     1
     31     36     1
     31     44     1
     30     37     1
     29     30     1
     28     31     1
     27     43     1
     27     29     1
     27     31     1
     27     32     1
     27     34     1
     26     33     1
     26     35     1
     25     27     1
     25     28     1
     25     30     1
     25     36     1
     24     29     1
     24     31     1
     24     37     1
     65     69     1
     61     64     1
     61     63     1
     60     64     1
     60     63     1
     58     65     1
     58     60     1
     58     61     1
     58     62     1
     57     63     1
     56     58     1
     56     59     1
     56     64     1
     56     66     1
     55     60     1
     55     61     1
     55     67     1
     54     55     1
     53     56     1
     52     54     1
     52     56     1
     52     57     1
     52     65     1
     51     58     1
     50     51     1
     49     52     1
     48     64     1
     48     50     1
     48     52     1
     48     53     1
     48     55     1
     47     54     1
     47     56     1
     46     48     1
     46     49     1
     46     51     1
     46     57     1
     45     50     1
     45     52     1
     45     58     1
     86     90     1
     82     85     1
     82     84     1
     81     85     1
     81     84     1
     79     86     1
     79     81     1
     79     82     1
     79     83     1
     78     84     1
     77     79     1
     77     80     1
     77     85     1
     77     87     1
     76     81     1
     76     82     1
     76     88     1
     75     76     1
     74     77     1
     73     75     1
     73     77     1
     73     78     1
     73     86     1
     72     79     1
     71     72     1
     70     73     1
     69     85     1
     69     71     1
     69     73     1
     69     74     1
     69     76     1
     68     75     1
     68     77     1
     67     69     1
     67     70     1
     67     72     1
     67     78     1
     66     71     1
     66     73     1
     66     79     1
    107    111     1
    103    106     1
    103    105     1
    102    106     1
    102    105     1
    100    107     1
    100    102     1
    100    103     1
    100    104     1
     99    105     1
     98    100     1
     98    101     1
     98    106     1
     98    108     1
     97    102     1
     97    103     1
     97    109     1
     96     97     1
     95     98     1
     94     96     1
     94     98     1
     94     99     1
     94    107     1
     93    100     1
     92     93     1
     91     94     1
     90    106     1
     90     92     1
     90     94     1
     90     95     1
     90     97     1
     89     96     1
     89     98     1
     88     90     1
     88     91     1
     88     93     1
     88     99     1
     87     92     1
     87     94     1
     87    100     1
    120    123     1
    120    122     1
    119    123     1
    119    122     1
    117    124     1
    117    119     1
    117    120     1
    117    121     1
    116    125     1
    116    122     1
    115    126     1
    115    117     1
    115    118     1
    115    123     1
    115    125     1
    114    127     1
    114    119     1
    114    120     1
    113    128     1
    113    115     1
    113    116     1
    113    124     1
    113    127     1
    112    129     1
    112    117     1
    112    125     1
    111    123     1
    111    113     1
    111    114     1
    111    126     1
    111    129     1
    110    115     1
    110    127     1
    109    111     1
    109    112     1
    109    128     1
    109    116     1
    108    113     1
    108    129     1
    108    117     1

[ angles ]
;    ai     aj     ak funct         c0         c1         c2         c3
      2      3      5     1   107.5000461 585.760000
      2      3     22     1   112.0000480 836.800000
     23     24     26     1   108.5000465 585.760000
     23     24     43     1   112.0000480 836.800000
     17     15     22     1   108.5000465 585.760000
     15     13     23     1   108.5000465 585.760000
     15     17     20     1   107.5000461 585.760000
     13     15     17     1   113.5000486 376.560000
     13     15     22     1   108.5000465 585.760000
     13     23     24     1   111.6000478 418.400000
     11      9     13     1   107.5000461 585.760000
      9     13     15     1   113.5000486 376.560000
      9     13     23     1   108.5000465 585.760000
      7      5      9     1   107.5000461 585.760000
      5      3     22     1   108.5000465 585.760000
      5      9     11     1   107.5000461 585.760000
      5      9     13     1   113.5000486 376.560000
      3      5      7     1   107.5000461 585.760000
      3      5      9     1   113.5000486 376.560000
      3     22     15     1   111.6000478 418.400000
     44     45     47     1   108.5000465 585.760000
     44     45     64     1   112.0000480 836.800000
     38     36     43     1   108.5000465 585.760000
     36     34     44     1   108.5000465 585.760000
     36     38     41     1   107.5000461 585.760000
     34     36     38     1   113.5000486 376.560000
     34     36     43     1   108.5000465 585.760000
     34     44     45     1   111.6000478 418.400000
     32     30     34     1   107.5000461 585.760000
     30     34     36     1   113.5000486 376.560000
     30     34     44     1   108.5000465 585.760000
     28     26     30     1   107.5000461 585.760000
     26     24     43     1   108.5000465 585.760000
     26     30     32     1   107.5000461 585.760000
     26     30     34     1   113.5000486 376.560000
     24     26     28     1   107.5000461 585.760000
     24     26     30     1   113.5000486 376.560000
     24     43     36     1   111.6000478 418.400000
     65     66     68     1   108.5000465 585.760000
     65     66     85     1   112.0000480 836.800000
     59     57     64     1   108.5000465 585.760000
     57     55     65     1   108.5000465 585.760000
     57     59     62     1   107.5000461 585.760000
     55     57     59     1   113.5000486 376.560000
     55     57     64     1   108.5000465 585.760000
     55     65     66     1   111.6000478 418.400000
     53     51     55     1   107.5000461 585.760000
     51     55     57     1   113.5000486 376.560000
     51     55     65     1   108.5000465 585.760000
     49     47     51     1   107.5000461 585.760000
     47     45     64     1   108.5000465 585.760000
     47     51     53     1   107.5000461 585.760000
     47     51     55     1   113.5000486 376.560000
     45     47     49     1   107.5000461 585.760000
     45     47     51     1   113.5000486 376.560000
     45     64     57     1   111.6000478 418.400000
     86     87     89     1   108.5000465 585.760000
     86     87    106     1   112.0000480 836.800000
     80     78     85     1   108.5000465 585.760000
     78     76     86     1   108.5000465 585.760000
     78     80     83     1   107.5000461 585.760000
     76     78     80     1   113.5000486 376.560000
     76     78     85     1   108.5000465 585.760000
     76     86     87     1   111.6000478 418.400000
     74     72     76     1   107.5000461 585.760000
     72     76     78     1   113.5000486 376.560000
     72     76     86     1   108.5000465 585.760000
     70     68     72     1   107.5000461 585.760000
     68     66     85     1   108.5000465 585.760000
     68     72     74     1   107.5000461 585.760000
     68     72     76     1   113.5000486 376.560000
     66     68     70     1   107.5000461 585.760000
     66     68     72     1   113.5000486 376.560000
     66     85     78     1   111.6000478 418.400000
    107    108    110     1   108.5000465 585.760000
    107    108    123     1   112.0000480 836.800000
    101     99    106     1   108.5000465 585.760000
     99     97    107     1   108.5000465 585.760000
     99    101    104     1   107.5000461 585.760000
     97     99    101     1   113.5000486 376.560000
     97     99    106     1   108.5000465 585.760000
     97    107    108     1   111.6000478 418.400000
     95     93     97     1   107.5000461 585.760000
     93     97     99     1   113.5000486 376.560000
     93     97    107     1   108.5000465 585.760000
     91     89     93     1   107.5000461 585.760000
     89     87    106     1   108.5000465 585.760000
     89     93     95     1   107.5000461 585.760000
     89     93     97     1   113.5000486 376.560000
     87     89     91     1   107.5000461 585.760000
     87     89     93     1   113.5000486 376.560000
     87    106     99     1   111.6000478 418.400000
    118    116    123     1   108.5000465 585.760000
    116    114    124     1   107.5000461 585.760000
    116    118    121     1   107.5000461 585.760000
    114    112    126     1   107.5000461 585.760000
    114    116    118     1   113.5000486 376.560000
    114    116    123     1   108.5000465 585.760000
    112    110    128     1   107.5000461 585.760000
    112    114    116     1   113.5000486 376.560000
    112    114    124     1   107.5000461 585.760000
    110    108    123     1   108.5000465 585.760000
    110    112    114     1   113.5000486 376.560000
    110    112    126     1   107.5000461 585.760000
    108    110    112     1   113.5000486 376.560000
    108    110    128     1   107.5000461 585.760000
    108    123    116     1   111.6000478 418.400000
      2      3      4     1   110.0000471 502.080000
      1      2      3     1   109.5000469 460.240000
     23     24     25     1   110.0000471 502.080000
     19     17     20     1   110.0000471 502.080000
     18     17     19     1   109.5000469 376.560000
     18     17     20     1   110.0000471 502.080000
     17     20     21     1   109.5000469 460.240000
     16     15     17     1   111.0000476 376.560000
     16     15     22     1   110.0000471 502.080000
     15     17     18     1   111.0000476 376.560000
     15     17     19     1   111.0000476 376.560000
     14     13     15     1   111.0000476 376.560000
     14     13     23     1   110.0000471 502.080000
     13     15     16     1   111.0000476 376.560000
     10      9     11     1   110.0000471 502.080000
     10      9     13     1   111.0000476 376.560000
      9     11     12     1   109.5000469 460.240000
      9     13     14     1   111.0000476 376.560000
      6      5      7     1   110.0000471 502.080000
      6      5      9     1   111.0000476 376.560000
      5      7      8     1   109.5000469 460.240000
      5      9     10     1   111.0000476 376.560000
      4      3      5     1   111.0000476 376.560000
      4      3     22     1   110.0000471 502.080000
      3      5      6     1   111.0000476 376.560000
     44     45     46     1   110.0000471 502.080000
     40     38     41     1   110.0000471 502.080000
     39     38     40     1   109.5000469 376.560000
     39     38     41     1   110.0000471 502.080000
     38     41     42     1   109.5000469 460.240000
     37     36     38     1   111.0000476 376.560000
     37     36     43     1   110.0000471 502.080000
     36     38     39     1   111.0000476 376.560000
     36     38     40     1   111.0000476 376.560000
     35     34     36     1   111.0000476 376.560000
     35     34     44     1   110.0000471 502.080000
     34     36     37     1   111.0000476 376.560000
     31     30     32     1   110.0000471 502.080000
     31     30     34     1   111.0000476 376.560000
     30     32     33     1   109.5000469 460.240000
     30     34     35     1   111.0000476 376.560000
     27     26     28     1   110.0000471 502.080000
     27     26     30     1   111.0000476 376.560000
     26     28     29     1   109.5000469 460.240000
     26     30     31     1   111.0000476 376.560000
     25     24     26     1   111.0000476 376.560000
     25     24     43     1   110.0000471 502.080000
     24     26     27     1   111.0000476 376.560000
     65     66     67     1   110.0000471 502.080000
     61     59     62     1   110.0000471 502.080000
     60     59     61     1   109.5000469 376.560000
     60     59     62     1   110.0000471 502.080000
     59     62     63     1   109.5000469 460.240000
     58     57     59     1   111.0000476 376.560000
     58     57     64     1   110.0000471 502.080000
     57     59     60     1   111.0000476 376.560000
     57     59     61     1   111.0000476 376.560000
     56     55     57     1   111.0000476 376.560000
     56     55     65     1   110.0000471 502.080000
     55     57     58     1   111.0000476 376.560000
     52     51     53     1   110.0000471 502.080000
     52     51     55     1   111.0000476 376.560000
     51     53     54     1   109.5000469 460.240000
     51     55     56     1   111.0000476 376.560000
     48     47     49     1   110.0000471 502.080000
     48     47     51     1   111.0000476 376.560000
     47     49     50     1   109.5000469 460.240000
     47     51     52     1   111.0000476 376.560000
     46     45     47     1   111.0000476 376.560000
     46     45     64     1   110.0000471 502.080000
     45     47     48     1   111.0000476 376.560000
     86     87     88     1   110.0000471 502.080000
     82     80     83     1   110.0000471 502.080000
     81     80     82     1   109.5000469 376.560000
     81     80     83     1   110.0000471 502.080000
     80     83     84     1   109.5000469 460.240000
     79     78     80     1   111.0000476 376.560000
     79     78     85     1   110.0000471 502.080000
     78     80     81     1   111.0000476 376.560000
     78     80     82     1   111.0000476 376.560000
     77     76     78     1   111.0000476 376.560000
     77     76     86     1   110.0000471 502.080000
     76     78     79     1   111.0000476 376.560000
     73     72     74     1   110.0000471 502.080000
     73     72     76     1   111.0000476 376.560000
     72     74     75     1   109.5000469 460.240000
     72     76     77     1   111.0000476 376.560000
     69     68     70     1   110.0000471 502.080000
     69     68     72     1   111.0000476 376.560000
     68     70     71     1   109.5000469 460.240000
     68     72     73     1   111.0000476 376.560000
     67     66     68     1   111.0000476 376.560000
     67     66     85     1   110.0000471 502.080000
     66     68     69     1   111.0000476 376.560000
    107    108    109     1   110.0000471 502.080000
    103    101    104     1   110.0000471 502.080000
    102    101    103     1   109.5000469 376.560000
    102    101    104     1   110.0000471 502.080000
    101    104    105     1   109.5000469 460.240000
    100     99    101     1   111.0000476 376.560000
    100     99    106     1   110.0000471 502.080000
     99    101    102     1   111.0000476 376.560000
     99    101    103     1   111.0000476 376.560000
     98     97     99     1   111.0000476 376.560000
     98     97    107     1   110.0000471 502.080000
     97     99    100     1   111.0000476 376.560000
     94     93     95     1   110.0000471 502.080000
     94     93     97     1   111.0000476 376.560000
     93     95     96     1   109.5000469 460.240000
     93     97     98     1   111.0000476 376.560000
     90     89     91     1   110.0000471 502.080000
     90     89     93     1   111.0000476 376.560000
     89     91     92     1   109.5000469 460.240000
     89     93     94     1   111.0000476 376.560000
     88     87     89     1   111.0000476 376.560000
     88     87    106     1   110.0000471 502.080000
     87     89     90     1   111.0000476 376.560000
    120    118    121     1   110.0000471 502.080000
    119    118    120     1   109.5000469 376.560000
    119    118    121     1   110.0000471 502.080000
    118    121    122     1   109.5000469 460.240000
    117    116    118     1   111.0000476 376.560000
    117    116    123     1   110.0000471 502.080000
    116    118    119     1   111.0000476 376.560000
    116    118    120     1   111.0000476 376.560000
    115    114    116     1   111.0000476 376.560000
    115    114    124     1   110.0000471 502.080000
    114    116    117     1   111.0000476 376.560000
    114    124    125     1   109.5000469 460.240000
    113    112    114     1   111.0000476 376.560000
    113    112    126     1   110.0000471 502.080000
    112    114    115     1   111.0000476 376.560000
    112    126    127     1   109.5000469 460.240000
    111    110    112     1   111.0000476 376.560000
    111    110    128     1   110.0000471 502.080000
    110    112    113     1   111.0000476 376.560000
    110    128    129     1   109.5000469 460.240000
    109    108    110     1   111.0000476 376.560000
    109    108    123     1   110.0000471 502.080000
    108    110    111     1   111.0000476 376.560000

[ dihedrals ]
;    ai     aj     ak     al funct         c0         c1         c2         c3         c4         c5
      2      3      5      7     1  0.0000000  -0.4184000  1
      2      3      5      7     1  0.0000000  3.9748000  2
      2      3      5      7     1  0.0000000  2.3012000  3
      2      3      5      9     1  0.0000000  0.4184000  3
      2      3     22     15     1  0.0000000  4.5187200  1
      2      3     22     15     1  0.0000000  5.7739200  2
      2      3     22     15     1  0.0000000  4.0166400  3
     23     24     26     28     1  0.0000000  -4.6024000  1
     23     24     26     28     1  0.0000000  1.0460000  2
     23     24     26     30     1  0.0000000  -1.1296800  1
     23     24     43     36     1  0.0000000  4.5187200  1
     23     24     43     36     1  0.0000000  5.7739200  2
     23     24     43     36     1  0.0000000  4.0166400  3
     22     15     13     23     1  0.0000000  1.6736000  2
     20     17     15     22     1  0.0000000  -4.6024000  1
     20     17     15     22     1  0.0000000  1.0460000  2
     17     15     13     23     1  0.0000000  -1.1296800  1
     15     13     23     24     1  0.0000000  0.6694400  3
     13     15     17     20     1  0.0000000  0.4184000  3
     13     23     24     26     1  0.0000000  0.6694400  3
     13     23     24     43     1  0.0000000  4.5187200  1
     13     23     24     43     1  0.0000000  5.7739200  2
     13     23     24     43     1  0.0000000  4.0166400  3
     11      9     13     15     1  0.0000000  0.4184000  3
     11      9     13     23     1  0.0000000  -4.6024000  1
     11      9     13     23     1  0.0000000  1.0460000  2
      9      5      3     22     1  0.0000000  -1.1296800  1
      9     13     15     17     1  0.0000000  1.8828000  1
      9     13     15     22     1  0.0000000  -1.1296800  1
      9     13     23     24     1  0.0000000  0.6694400  3
      7      5      3     22     1  0.0000000  -4.6024000  1
      7      5      3     22     1  0.0000000  1.0460000  2
      7      5      9     11     1  0.0000000  -0.4184000  1
      7      5      9     11     1  0.0000000  3.9748000  2
      7      5      9     11     1  0.0000000  2.3012000  3
      7      5      9     13     1  0.0000000  0.4184000  3
      5      3     22     15     1  0.0000000  0.6694400  3
      5      9     13     15     1  0.0000000  1.8828000  1
      5      9     13     23     1  0.0000000  -1.1296800  1
      3      5      9     11     1  0.0000000  0.4184000  3
      3      5      9     13     1  0.0000000  1.8828000  1
      3     22     15     13     1  0.0000000  0.6694400  3
      3     22     15     17     1  0.0000000  0.6694400  3
     44     45     47     49     1  0.0000000  -4.6024000  1
     44     45     47     49     1  0.0000000  1.0460000  2
     44     45     47     51     1  0.0000000  -1.1296800  1
     44     45     64     57     1  0.0000000  4.5187200  1
     44     45     64     57     1  0.0000000  5.7739200  2
     44     45     64     57     1  0.0000000  4.0166400  3
     43     36     34     44     1  0.0000000  1.6736000  2
     41     38     36     43     1  0.0000000  -4.6024000  1
     41     38     36     43     1  0.0000000  1.0460000  2
     38     36     34     44     1  0.0000000  -1.1296800  1
     36     34     44     45     1  0.0000000  0.6694400  3
     34     36     38     41     1  0.0000000  0.4184000  3
     34     44     45     47     1  0.0000000  0.6694400  3
     34     44     45     64     1  0.0000000  4.5187200  1
     34     44     45     64     1  0.0000000  5.7739200  2
     34     44     45     64     1  0.0000000  4.0166400  3
     32     30     34     36     1  0.0000000  0.4184000  3
     32     30     34     44     1  0.0000000  -4.6024000  1
     32     30     34     44     1  0.0000000  1.0460000  2
     30     26     24     43     1  0.0000000  -1.1296800  1
     30     34     36     38     1  0.0000000  1.8828000  1
     30     34     36     43     1  0.0000000  -1.1296800  1
     30     34     44     45     1  0.0000000  0.6694400  3
     28     26     24     43     1  0.0000000  -4.6024000  1
     28     26     24     43     1  0.0000000  1.0460000  2
     28     26     30     32     1  0.0000000  -0.4184000  1
     28     26     30     32     1  0.0000000  3.9748000  2
     28     26     30     32     1  0.0000000  2.3012000  3
     28     26     30     34     1  0.0000000  0.4184000  3
     26     24     43     36     1  0.0000000  0.6694400  3
     26     30     34     36     1  0.0000000  1.8828000  1
     26     30     34     44     1  0.0000000  -1.1296800  1
     24     26     30     32     1  0.0000000  0.4184000  3
     24     26     30     34     1  0.0000000  1.8828000  1
     24     43     36     34     1  0.0000000  0.6694400  3
     24     43     36     38     1  0.0000000  0.6694400  3
     65     66     68     70     1  0.0000000  -4.6024000  1
     65     66     68     70     1  0.0000000  1.0460000  2
     65     66     68     72     1  0.0000000  -1.1296800  1
     65     66     85     78     1  0.0000000  4.5187200  1
     65     66     85     78     1  0.0000000  5.7739200  2
     65     66     85     78     1  0.0000000  4.0166400  3
     64     57     55     65     1  0.0000000  1.6736000  2
     62     59     57     64     1  0.0000000  -4.6024000  1
     62     59     57     64     1  0.0000000  1.0460000  2
     59     57     55     65     1  0.0000000  -1.1296800  1
     57     55     65     66     1  0.0000000  0.6694400  3
     55     57     59     62     1  0.0000000  0.4184000  3
     55     65     66     68     1  0.0000000  0.6694400  3
     55     65     66     85     1  0.0000000  4.5187200  1
     55     65     66     85     1  0.0000000  5.7739200  2
     55     65     66     85     1  0.0000000  4.0166400  3
     53     51     55     57     1  0.0000000  0.4184000  3
     53     51     55     65     1  0.0000000  -4.6024000  1
     53     51     55     65     1  0.0000000  1.0460000  2
     51     47     45     64     1  0.0000000  -1.1296800  1
     51     55     57     59     1  0.0000000  1.8828000  1
     51     55     57     64     1  0.0000000  -1.1296800  1
     51     55     65     66     1  0.0000000  0.6694400  3
     49     47     45     64     1  0.0000000  -4.6024000  1
     49     47     45     64     1  0.0000000  1.0460000  2
     49     47     51     53     1  0.0000000  -0.4184000  1
     49     47     51     53     1  0.0000000  3.9748000  2
     49     47     51     53     1  0.0000000  2.3012000  3
     49     47     51     55     1  0.0000000  0.4184000  3
     47     45     64     57     1  0.0000000  0.6694400  3
     47     51     55     57     1  0.0000000  1.8828000  1
     47     51     55     65     1  0.0000000  -1.1296800  1
     45     47     51     53     1  0.0000000  0.4184000  3
     45     47     51     55     1  0.0000000  1.8828000  1
     45     64     57     55     1  0.0000000  0.6694400  3
     45     64     57     59     1  0.0000000  0.6694400  3
     86     87     89     91     1  0.0000000  -4.6024000  1
     86     87     89     91     1  0.0000000  1.0460000  2
     86     87     89     93     1  0.0000000  -1.1296800  1
     86     87    106     99     1  0.0000000  4.5187200  1
     86     87    106     99     1  0.0000000  5.7739200  2
     86     87    106     99     1  0.0000000  4.0166400  3
     85     78     76     86     1  0.0000000  1.6736000  2
     83     80     78     85     1  0.0000000  -4.6024000  1
     83     80     78     85     1  0.0000000  1.0460000  2
     80     78     76     86     1  0.0000000  -1.1296800  1
     78     76     86     87     1  0.0000000  0.6694400  3
     76     78     80     83     1  0.0000000  0.4184000  3
     76     86     87     89     1  0.0000000  0.6694400  3
     76     86     87    106     1  0.0000000  4.5187200  1
     76     86     87    106     1  0.0000000  5.7739200  2
     76     86     87    106     1  0.0000000  4.0166400  3
     74     72     76     78     1  0.0000000  0.4184000  3
     74     72     76     86     1  0.0000000  -4.6024000  1
     74     72     76     86     1  0.0000000  1.0460000  2
     72     68     66     85     1  0.0000000  -1.1296800  1
     72     76     78     80     1  0.0000000  1.8828000  1
     72     76     78     85     1  0.0000000  -1.1296800  1
     72     76     86     87     1  0.0000000  0.6694400  3
     70     68     66     85     1  0.0000000  -4.6024000  1
     70     68     66     85     1  0.0000000  1.0460000  2
     70     68     72     74     1  0.0000000  -0.4184000  1
     70     68     72     74     1  0.0000000  3.9748000  2
     70     68     72     74     1  0.0000000  2.3012000  3
     70     68     72     76     1  0.0000000  0.4184000  3
     68     66     85     78     1  0.0000000  0.6694400  3
     68     72     76     78     1  0.0000000  1.8828000  1
     68     72     76     86     1  0.0000000  -1.1296800  1
     66     68     72     74     1  0.0000000  0.4184000  3
     66     68     72     76     1  0.0000000  1.8828000  1
     66     85     78     76     1  0.0000000  0.6694400  3
     66     85     78     80     1  0.0000000  0.6694400  3
    107    108    110    112     1  0.0000000  -1.1296800  1
    107    108    110    128     1  0.0000000  -4.6024000  1
    107    108    110    128     1  0.0000000  1.0460000  2
    107    108    123    116     1  0.0000000  4.5187200  1
    107    108    123    116     1  0.0000000  5.7739200  2
    107    108    123    116     1  0.0000000  4.0166400  3
    106     99     97    107     1  0.0000000  1.6736000  2
    104    101     99    106     1  0.0000000  -4.6024000  1
    104    101     99    106     1  0.0000000  1.0460000  2
    101     99     97    107     1  0.0000000  -1.1296800  1
     99     97    107    108     1  0.0000000  0.6694400  3
     97     99    101    104     1  0.0000000  0.4184000  3
     97    107    108    110     1  0.0000000  0.6694400  3
     97    107    108    123     1  0.0000000  4.5187200  1
     97    107    108    123     1  0.0000000  5.7739200  2
     97    107    108    123     1  0.0000000  4.0166400  3
     95     93     97     99     1  0.0000000  0.4184000  3
     95     93     97    107     1  0.0000000  -4.6024000  1
     95     93     97    107     1  0.0000000  1.0460000  2
     93     89     87    106     1  0.0000000  -1.1296800  1
     93     97     99    101     1  0.0000000  1.8828000  1
     93     97     99    106     1  0.0000000  -1.1296800  1
     93     97    107    108     1  0.0000000  0.6694400  3
     91     89     87    106     1  0.0000000  -4.6024000  1
     91     89     87    106     1  0.0000000  1.0460000  2
     91     89     93     95     1  0.0000000  -0.4184000  1
     91     89     93     95     1  0.0000000  3.9748000  2
     91     89     93     95     1  0.0000000  2.3012000  3
     91     89     93     97     1  0.0000000  0.4184000  3
     89     87    106     99     1  0.0000000  0.6694400  3
     89     93     97     99     1  0.0000000  1.8828000  1
     89     93     97    107     1  0.0000000  -1.1296800  1
     87     89     93     95     1  0.0000000  0.4184000  3
     87     89     93     97     1  0.0000000  1.8828000  1
     87    106     99     97     1  0.0000000  0.6694400  3
     87    106     99    101     1  0.0000000  0.6694400  3
    126    112    110    128     1  0.0000000  -0.4184000  1
    126    112    110    128     1  0.0000000  3.9748000  2
    126    112    110    128     1  0.0000000  2.3012000  3
    124    114    112    126     1  0.0000000  -0.4184000  1
    124    114    112    126     1  0.0000000  3.9748000  2
    124    114    112    126     1  0.0000000  2.3012000  3
    123    116    114    124     1  0.0000000  -4.6024000  1
    123    116    114    124     1  0.0000000  1.0460000  2
    123    108    110    128     1  0.0000000  -4.6024000  1
    123    108    110    128     1  0.0000000  1.0460000  2
    121    118    116    123     1  0.0000000  -4.6024000  1
    121    118    116    123     1  0.0000000  1.0460000  2
    118    116    114    124     1  0.0000000  0.4184000  3
    116    114    112    126     1  0.0000000  0.4184000  3
    114    112    110    128     1  0.0000000  0.4184000  3
    114    116    118    121     1  0.0000000  0.4184000  3
    112    110    108    123     1  0.0000000  -1.1296800  1
    112    114    116    118     1  0.0000000  1.8828000  1
    112    114    116    123     1  0.0000000  -1.1296800  1
    110    108    123    116     1  0.0000000  0.6694400  3
    110    112    114    116     1  0.0000000  1.8828000  1
    110    112    114    124     1  0.0000000  0.4184000  3
    108    110    112    114     1  0.0000000  1.8828000  1
    108    110    112    126     1  0.0000000  0.4184000  3
    108    123    116    114     1  0.0000000  0.6694400  3
    108    123    116    118     1  0.0000000  0.6694400  3
      2      3      5      6     1  0.0000000  0.2092000  3
      1      2      3      4     1  0.0000000  0.7531200  3
      1      2      3      5     1  0.0000000  0.7531200  3
      1      2      3     22     1  0.0000000  0.7531200  3
     23     24     26     27     1  0.0000000  0.2092000  3
     19     17     15     22     1  0.0000000  0.2092000  3
     19     17     20     21     1  0.0000000  0.7531200  3
     18     17     15     22     1  0.0000000  0.2092000  3
     18     17     20     21     1  0.0000000  0.7531200  3
     16     15     13     23     1  0.0000000  0.2092000  3
     16     15     17     18     1  0.0000000  0.7112800  3
     16     15     17     19     1  0.0000000  0.7112800  3
     16     15     17     20     1  0.0000000  0.2092000  3
     15     17     20     21     1  0.0000000  0.7531200  3
     14     13     15     16     1  0.0000000  0.7112800  3
     14     13     15     17     1  0.0000000  0.6276000  3
     14     13     15     22     1  0.0000000  0.2092000  3
     14     13     23     24     1  0.0000000  1.1296800  3
     13     15     17     18     1  0.0000000  0.6276000  3
     13     15     17     19     1  0.0000000  0.6276000  3
     13     23     24     25     1  0.0000000  2.5104000  2
     13     23     24     25     1  0.0000000  0.4184000  3
     12     11      9     13     1  0.0000000  0.7531200  3
     11      9     13     14     1  0.0000000  0.2092000  3
     10      9     11     12     1  0.0000000  0.7531200  3
     10      9     13     14     1  0.0000000  0.7112800  3
     10      9     13     15     1  0.0000000  0.6276000  3
     10      9     13     23     1  0.0000000  0.2092000  3
      9     13     15     16     1  0.0000000  0.6276000  3
      8      7      5      9     1  0.0000000  0.7531200  3
      7      5      9     10     1  0.0000000  0.2092000  3
      6      5      3     22     1  0.0000000  0.2092000  3
      6      5      7      8     1  0.0000000  0.7531200  3
      6      5      9     10     1  0.0000000  0.7112800  3
      6      5      9     11     1  0.0000000  0.2092000  3
      6      5      9     13     1  0.0000000  0.6276000  3
      5      9     11     12     1  0.0000000  0.7531200  3
      5      9     13     14     1  0.0000000  0.6276000  3
      4      3      5      6     1  0.0000000  0.7112800  3
      4      3      5      7     1  0.0000000  0.2092000  3
      4      3      5      9     1  0.0000000  0.6276000  3
      4      3     22     15     1  0.0000000  2.5104000  2
      4      3     22     15     1  0.0000000  0.4184000  3
      3      5      7      8     1  0.0000000  0.7531200  3
      3      5      9     10     1  0.0000000  0.6276000  3
      3     22     15     16     1  0.0000000  1.1296800  3
     44     45     47     48     1  0.0000000  0.2092000  3
     40     38     36     43     1  0.0000000  0.2092000  3
     40     38     41     42     1  0.0000000  0.7531200  3
     39     38     36     43     1  0.0000000  0.2092000  3
     39     38     41     42     1  0.0000000  0.7531200  3
     37     36     34     44     1  0.0000000  0.2092000  3
     37     36     38     39     1  0.0000000  0.7112800  3
     37     36     38     40     1  0.0000000  0.7112800  3
     37     36     38     41     1  0.0000000  0.2092000  3
     36     38     41     42     1  0.0000000  0.7531200  3
     35     34     36     37     1  0.0000000  0.7112800  3
     35     34     36     38     1  0.0000000  0.6276000  3
     35     34     36     43     1  0.0000000  0.2092000  3
     35     34     44     45     1  0.0000000  1.1296800  3
     34     36     38     39     1  0.0000000  0.6276000  3
     34     36     38     40     1  0.0000000  0.6276000  3
     34     44     45     46     1  0.0000000  2.5104000  2
     34     44     45     46     1  0.0000000  0.4184000  3
     33     32     30     34     1  0.0000000  0.7531200  3
     32     30     34     35     1  0.0000000  0.2092000  3
     31     30     32     33     1  0.0000000  0.7531200  3
     31     30     34     35     1  0.0000000  0.7112800  3
     31     30     34     36     1  0.0000000  0.6276000  3
     31     30     34     44     1  0.0000000  0.2092000  3
     30     34     36     37     1  0.0000000  0.6276000  3
     29     28     26     30     1  0.0000000  0.7531200  3
     28     26     30     31     1  0.0000000  0.2092000  3
     27     26     24     43     1  0.0000000  0.2092000  3
     27     26     28     29     1  0.0000000  0.7531200  3
     27     26     30     31     1  0.0000000  0.7112800  3
     27     26     30     32     1  0.0000000  0.2092000  3
     27     26     30     34     1  0.0000000  0.6276000  3
     26     30     32     33     1  0.0000000  0.7531200  3
     26     30     34     35     1  0.0000000  0.6276000  3
     25     24     26     27     1  0.0000000  0.7112800  3
     25     24     26     28     1  0.0000000  0.2092000  3
     25     24     26     30     1  0.0000000  0.6276000  3
     25     24     43     36     1  0.0000000  2.5104000  2
     25     24     43     36     1  0.0000000  0.4184000  3
     24     26     28     29     1  0.0000000  0.7531200  3
     24     26     30     31     1  0.0000000  0.6276000  3
     24     43     36     37     1  0.0000000  1.1296800  3
     65     66     68     69     1  0.0000000  0.2092000  3
     61     59     57     64     1  0.0000000  0.2092000  3
     61     59     62     63     1  0.0000000  0.7531200  3
     60     59     57     64     1  0.0000000  0.2092000  3
     60     59     62     63     1  0.0000000  0.7531200  3
     58     57     55     65     1  0.0000000  0.2092000  3
     58     57     59     60     1  0.0000000  0.7112800  3
     58     57     59     61     1  0.0000000  0.7112800  3
     58     57     59     62     1  0.0000000  0.2092000  3
     57     59     62     63     1  0.0000000  0.7531200  3
     56     55     57     58     1  0.0000000  0.7112800  3
     56     55     57     59     1  0.0000000  0.6276000  3
     56     55     57     64     1  0.0000000  0.2092000  3
     56     55     65     66     1  0.0000000  1.1296800  3
     55     57     59     60     1  0.0000000  0.6276000  3
     55     57     59     61     1  0.0000000  0.6276000  3
     55     65     66     67     1  0.0000000  2.5104000  2
     55     65     66     67     1  0.0000000  0.4184000  3
     54     53     51     55     1  0.0000000  0.7531200  3
     53     51     55     56     1  0.0000000  0.2092000  3
     52     51     53     54     1  0.0000000  0.7531200  3
     52     51     55     56     1  0.0000000  0.7112800  3
     52     51     55     57     1  0.0000000  0.6276000  3
     52     51     55     65     1  0.0000000  0.2092000  3
     51     55     57     58     1  0.0000000  0.6276000  3
     50     49     47     51     1  0.0000000  0.7531200  3
     49     47     51     52     1  0.0000000  0.2092000  3
     48     47     45     64     1  0.0000000  0.2092000  3
     48     47     49     50     1  0.0000000  0.7531200  3
     48     47     51     52     1  0.0000000  0.7112800  3
     48     47     51     53     1  0.0000000  0.2092000  3
     48     47     51     55     1  0.0000000  0.6276000  3
     47     51     53     54     1  0.0000000  0.7531200  3
     47     51     55     56     1  0.0000000  0.6276000  3
     46     45     47     48     1  0.0000000  0.7112800  3
     46     45     47     49     1  0.0000000  0.2092000  3
     46     45     47     51     1  0.0000000  0.6276000  3
     46     45     64     57     1  0.0000000  2.5104000  2
     46     45     64     57     1  0.0000000  0.4184000  3
     45     47     49     50     1  0.0000000  0.7531200  3
     45     47     51     52     1  0.0000000  0.6276000  3
     45     64     57     58     1  0.0000000  1.1296800  3
     86     87     89     90     1  0.0000000  0.2092000  3
     82     80     78     85     1  0.0000000  0.2092000  3
     82     80     83     84     1  0.0000000  0.7531200  3
     81     80     78     85     1  0.0000000  0.2092000  3
     81     80     83     84     1  0.0000000  0.7531200  3
     79     78     76     86     1  0.0000000  0.2092000  3
     79     78     80     81     1  0.0000000  0.7112800  3
     79     78     80     82     1  0.0000000  0.7112800  3
     79     78     80     83     1  0.0000000  0.2092000  3
     78     80     83     84     1  0.0000000  0.7531200  3
     77     76     78     79     1  0.0000000  0.7112800  3
     77     76     78     80     1  0.0000000  0.6276000  3
     77     76     78     85     1  0.0000000  0.2092000  3
     77     76     86     87     1  0.0000000  1.1296800  3
     76     78     80     81     1  0.0000000  0.6276000  3
     76     78     80     82     1  0.0000000  0.6276000  3
     76     86     87     88     1  0.0000000  2.5104000  2
     76     86     87     88     1  0.0000000  0.4184000  3
     75     74     72     76     1  0.0000000  0.7531200  3
     74     72     76     77     1  0.0000000  0.2092000  3
     73     72     74     75     1  0.0000000  0.7531200  3
     73     72     76     77     1  0.0000000  0.7112800  3
     73     72     76     78     1  0.0000000  0.6276000  3
     73     72     76     86     1  0.0000000  0.2092000  3
     72     76     78     79     1  0.0000000  0.6276000  3
     71     70     68     72     1  0.0000000  0.7531200  3
     70     68     72     73     1  0.0000000  0.2092000  3
     69     68     66     85     1  0.0000000  0.2092000  3
     69     68     70     71     1  0.0000000  0.7531200  3
     69     68     72     73     1  0.0000000  0.7112800  3
     69     68     72     74     1  0.0000000  0.2092000  3
     69     68     72     76     1  0.0000000  0.6276000  3
     68     72     74     75     1  0.0000000  0.7531200  3
     68     72     76     77     1  0.0000000  0.6276000  3
     67     66     68     69     1  0.0000000  0.7112800  3
     67     66     68     70     1  0.0000000  0.2092000  3
     67     66     68     72     1  0.0000000  0.6276000  3
     67     66     85     78     1  0.0000000  2.5104000  2
     67     66     85     78     1  0.0000000  0.4184000  3
     66     68     70     71     1  0.0000000  0.7531200  3
     66     68     72     73     1  0.0000000  0.6276000  3
     66     85     78     79     1  0.0000000  1.1296800  3
    107    108    110    111     1  0.0000000  0.2092000  3
    103    101     99    106     1  0.0000000  0.2092000  3
    103    101    104    105     1  0.0000000  0.7531200  3
    102    101     99    106     1  0.0000000  0.2092000  3
    102    101    104    105     1  0.0000000  0.7531200  3
    100     99     97    107     1  0.0000000  0.2092000  3
    100     99    101    102     1  0.0000000  0.7112800  3
    100     99    101    103     1  0.0000000  0.7112800  3
    100     99    101    104     1  0.0000000  0.2092000  3
     99    101    104    105     1  0.0000000  0.7531200  3
     98     97     99    100     1  0.0000000  0.7112800  3
     98     97     99    101     1  0.0000000  0.6276000  3
     98     97     99    106     1  0.0000000  0.2092000  3
     98     97    107    108     1  0.0000000  1.1296800  3
     97     99    101    102     1  0.0000000  0.6276000  3
     97     99    101    103     1  0.0000000  0.6276000  3
     97    107    108    109     1  0.0000000  2.5104000  2
     97    107    108    109     1  0.0000000  0.4184000  3
     96     95     93     97     1  0.0000000  0.7531200  3
     95     93     97     98     1  0.0000000  0.2092000  3
     94     93     95     96     1  0.0000000  0.7531200  3
     94     93     97     98     1  0.0000000  0.7112800  3
     94     93     97     99     1  0.0000000  0.6276000  3
     94     93     97    107     1  0.0000000  0.2092000  3
     93     97     99    100     1  0.0000000  0.6276000  3
     92     91     89     93     1  0.0000000  0.7531200  3
     91     89     93     94     1  0.0000000  0.2092000  3
     90     89     87    106     1  0.0000000  0.2092000  3
     90     89     91     92     1  0.0000000  0.7531200  3
     90     89     93     94     1  0.0000000  0.7112800  3
     90     89     93     95     1  0.0000000  0.2092000  3
     90     89     93     97     1  0.0000000  0.6276000  3
     89     93     95     96     1  0.0000000  0.7531200  3
     89     93     97     98     1  0.0000000  0.6276000  3
     88     87     89     90     1  0.0000000  0.7112800  3
     88     87     89     91     1  0.0000000  0.2092000  3
     88     87     89     93     1  0.0000000  0.6276000  3
     88     87    106     99     1  0.0000000  2.5104000  2
     88     87    106     99     1  0.0000000  0.4184000  3
     87     89     91     92     1  0.0000000  0.7531200  3
     87     89     93     94     1  0.0000000  0.6276000  3
     87    106     99    100     1  0.0000000  1.1296800  3
    120    118    116    123     1  0.0000000  0.2092000  3
    120    118    121    122     1  0.0000000  0.7531200  3
    119    118    116    123     1  0.0000000  0.2092000  3
    119    118    121    122     1  0.0000000  0.7531200  3
    117    116    114    124     1  0.0000000  0.2092000  3
    117    116    118    119     1  0.0000000  0.7112800  3
    117    116    118    120     1  0.0000000  0.7112800  3
    117    116    118    121     1  0.0000000  0.2092000  3
    116    114    124    125     1  0.0000000  0.7531200  3
    116    118    121    122     1  0.0000000  0.7531200  3
    115    114    112    126     1  0.0000000  0.2092000  3
    115    114    116    117     1  0.0000000  0.7112800  3
    115    114    116    118     1  0.0000000  0.6276000  3
    115    114    116    123     1  0.0000000  0.2092000  3
    115    114    124    125     1  0.0000000  0.7531200  3
    114    112    126    127     1  0.0000000  0.7531200  3
    114    116    118    119     1  0.0000000  0.6276000  3
    114    116    118    120     1  0.0000000  0.6276000  3
    113    112    110    128     1  0.0000000  0.2092000  3
    113    112    114    115     1  0.0000000  0.7112800  3
    113    112    114    116     1  0.0000000  0.6276000  3
    113    112    114    124     1  0.0000000  0.2092000  3
    113    112    126    127     1  0.0000000  0.7531200  3
    112    110    128    129     1  0.0000000  0.7531200  3
    112    114    116    117     1  0.0000000  0.6276000  3
    112    114    124    125     1  0.0000000  0.7531200  3
    111    110    108    123     1  0.0000000  0.2092000  3
    111    110    112    113     1  0.0000000  0.7112800  3
    111    110    112    114     1  0.0000000  0.6276000  3
    111    110    112    126     1  0.0000000  0.2092000  3
    111    110    128    129     1  0.0000000  0.7531200  3
    110    112    114    115     1  0.0000000  0.6276000  3
    110    112    126    127     1  0.0000000  0.7531200  3
    109    108    110    111     1  0.0000000  0.7112800  3
    109    108    110    112     1  0.0000000  0.6276000  3
    109    108    110    128     1  0.0000000  0.2092000  3
    109    108    123    116     1  0.0000000  2.5104000  2
    109    108    123    116     1  0.0000000  0.4184000  3
    108    110    112    113     1  0.0000000  0.6276000  3
    108    110    128    129     1  0.0000000  0.7531200  3
    108    123    116    117     1  0.0000000  1.1296800  3


[ moleculetype ]
; Name            nrexcl
WAT          3

[ atoms ]
;   nr       type  resnr residue  atom   cgnr    charge       mass  typeB    chargeB      massB
; residue    1 WAT rtp WAT q 0.0
    1         OW      1    WAT      O      1 -0.83400000  16.000000   ; qtot -0.834000
    2         HW      1    WAT     H1      2 0.41700000   1.008000   ; qtot -0.417000
    3         HW      1    WAT     H2      3 0.41700000   1.008000   ; qtot 0.000000

#ifdef FLEXIBLE

[ bonds ]
;    ai     aj funct         c0         c1         c2         c3
      2      1     1   0.09572 462750.400000
      3      1     1   0.09572 462750.400000
      3      2     1   0.15136 462750.400000


#else

[ settles ]
; i     funct   doh     dhh
1     1   0.09572000   0.15136000

#endif

[ exclusions ]
1  2  3
2  1  3
3  1  2

[ system ]
; Name
Generic title

[ molecules ]
; Compound       #mols
system1              1
WAT               4391
