GROningen MAchine for Chemical Simulation
13302
    1ROH    HO1    1   1.684   2.476   3.130
    1ROH     O1    2   1.658   2.559   3.089
    24GA     C1    3   1.705   2.669   3.168
    24GA     H1    4   1.661   2.663   3.268
    24GA     C2    5   1.661   2.800   3.098
    24GA     H2    6   1.678   2.882   3.167
    24GA     O2    7   1.518   2.798   3.066
    24GA    H2O    8   1.493   2.710   3.034
    24GA     C3    9   1.743   2.825   2.970
    24GA     H3   10   1.716   2.751   2.894
    24GA     O3   11   1.710   2.958   2.919
    24GA    H3O   12   1.614   2.968   2.925
    24GA     C4   13   1.888   2.824   2.993
    24GA     H4   14   1.916   2.908   3.057
    24GA     C5   15   1.933   2.693   3.060
    24GA     H5   16   1.915   2.611   2.990
    24GA     C6   17   2.083   2.693   3.098
    24GA    H62   18   2.143   2.731   3.015
    24GA    H61   19   2.099   2.757   3.184
    24GA     O6   20   2.128   2.560   3.129
    24GA    H6O   21   2.143   2.511   3.047
    24GA     O5   22   1.850   2.668   3.183
    24GA     O4   23   1.956   2.838   2.866
    34GA     C1   24   1.994   2.977   2.840
    34GA     H1   25   1.925   3.045   2.891
    34GA     C2   26   1.989   3.002   2.687
    34GA     H2   27   1.998   3.109   2.671
    34GA     O2   28   1.861   2.958   2.630
    34GA    H2O   29   1.835   2.875   2.671
    34GA     C3   30   2.106   2.932   2.614
    34GA     H3   31   2.092   2.824   2.618
    34GA     O3   32   2.106   2.974   2.475
    34GA    H3O   33   2.014   2.973   2.445
    34GA     C4   34   2.236   2.968   2.667
    34GA     H4   35   2.255   3.074   2.649
    34GA     C5   36   2.244   2.940   2.819
    34GA     H5   37   2.236   2.833   2.834
    34GA     C6   38   2.378   2.989   2.881
    34GA    H62   39   2.462   2.959   2.819
    34GA    H61   40   2.378   3.098   2.887
    34GA     O6   41   2.396   2.933   3.012
    34GA    H6O   42   2.426   2.842   3.005
    34GA     O5   43   2.129   3.007   2.888
    34GA     O4   44   2.338   2.890   2.599
    44GA     C1   45   2.398   2.964   2.489
    44GA     H1   46   2.327   3.036   2.449
    44GA     C2   47   2.437   2.863   2.377
    44GA     H2   48   2.463   2.920   2.288
    44GA     O2   49   2.326   2.775   2.342
    44GA    H2O   50   2.279   2.749   2.423
    44GA     C3   51   2.560   2.779   2.418
    44GA     H3   52   2.532   2.711   2.499
    44GA     O3   53   2.603   2.701   2.304
    44GA    H3O   54   2.524   2.665   2.262
    44GA     C4   55   2.675   2.859   2.457
    44GA     H4   56   2.711   2.915   2.370
    44GA     C5   57   2.638   2.957   2.570
    44GA     H5   58   2.613   2.899   2.659
    44GA     C6   59   2.754   3.053   2.606
    44GA    H62   60   2.848   2.998   2.614
    44GA    H61   61   2.766   3.128   2.527
    44GA     O6   62   2.730   3.119   2.731
    44GA    H6O   63   2.749   3.060   2.804
    44GA     O5   64   2.517   3.037   2.530
    44GA     O4   65   2.780   2.771   2.503
    54GA     C1   66   2.877   2.742   2.397
    54GA     H1   67   2.828   2.749   2.300
    54GA     C2   68   2.932   2.599   2.418
    54GA     H2   69   2.988   2.571   2.328
    54GA     O2   70   2.824   2.501   2.435
    54GA    H2O   71   2.754   2.540   2.490
    54GA     C3   72   3.028   2.592   2.539
    54GA     H3   73   2.971   2.606   2.631
    54GA     O3   74   3.090   2.461   2.542
    54GA    H3O   75   3.021   2.396   2.523
    54GA     C4   76   3.137   2.688   2.532
    54GA     H4   77   3.202   2.663   2.447
    54GA     C5   78   3.083   2.832   2.515
    54GA     H5   79   3.028   2.858   2.605
    54GA     C6   80   3.196   2.935   2.494
    54GA    H62   81   3.277   2.919   2.566
    54GA    H61   82   3.238   2.925   2.394
    54GA     O6   83   3.147   3.069   2.512
    54GA    H6O   84   3.139   3.089   2.605
    54GA     O5   85   2.989   2.837   2.398
    54GA     O4   86   3.214   2.680   2.654
    64GA     C1   87   3.331   2.595   2.639
    64GA     H1   88   3.312   2.519   2.563
    64GA     C2   89   3.361   2.526   2.775
    64GA     H2   90   3.435   2.448   2.757
    64GA     O2   91   3.241   2.462   2.830
    64GA    H2O   92   3.165   2.519   2.815
    64GA     C3   93   3.419   2.626   2.877
    64GA     H3   94   3.341   2.697   2.906
    64GA     O3   95   3.461   2.553   2.995
    64GA    H3O   96   3.392   2.488   3.015
    64GA     C4   97   3.536   2.696   2.829
    64GA     H4   98   3.618   2.625   2.815
    64GA     C5   99   3.508   2.768   2.696
    64GA     H5  100   3.434   2.846   2.714
    64GA     C6  101   3.634   2.834   2.635
    64GA    H62  102   3.689   2.888   2.712
    64GA    H61  103   3.700   2.757   2.594
    64GA     O6  104   3.599   2.926   2.530
    64GA    H6O  105   3.568   3.009   2.569
    64GA     O5  106   3.449   2.671   2.598
    64GA     O4  107   3.576   2.795   2.928
    70GA     C1  108   3.682   2.743   3.015
    70GA     H1  109   3.675   2.635   3.023
    70GA     C2  110   3.665   2.807   3.156
    70GA     H2  111   3.731   2.753   3.225
    70GA     C3  112   3.705   2.956   3.156
    70GA     H3  113   3.631   3.013   3.099
    70GA     C4  114   3.838   2.980   3.106
    70GA     H4  115   3.912   2.935   3.173
    70GA     C5  116   3.856   2.921   2.964
    70GA     H5  117   3.790   2.975   2.896
    70GA     C6  118   4.001   2.934   2.913
    70GA    H62  119   4.040   3.034   2.931
    70GA    H61  120   4.066   2.862   2.964
    70GA     O6  121   4.007   2.909   2.770
    70GA    H6O  122   3.977   2.987   2.723
    70GA     O5  123   3.815   2.777   2.965
    70GA     O4  124   3.862   3.123   3.101
    70GA    H4O  125   3.838   3.159   3.187
    70GA     O3  126   3.698   3.001   3.294
    70GA    H3O  127   3.617   2.965   3.333
    70GA     O2  128   3.527   2.792   3.205
    70GA    H2O  129   3.466   2.807   3.133
    8WAT      O  130   4.925   4.590   4.516
    8WAT     H1  131   4.917   4.498   4.488
    8WAT     H2  132   4.884   4.639   4.445
    9WAT      O  133   4.738   4.767   4.704
    9WAT     H1  134   4.661   4.719   4.733
    9WAT     H2  135   4.803   4.699   4.686
   10WAT      O  136   4.140   4.799   4.791
   10WAT     H1  137   4.057   4.773   4.831
   10WAT     H2  138   4.201   4.806   4.865
   11WAT      O  139   5.140   5.208   4.582
   11WAT     H1  140   5.094   5.131   4.614
   11WAT     H2  141   5.222   5.211   4.632
   12WAT      O  142   4.138   5.202   4.811
   12WAT     H1  143   4.168   5.113   4.793
   12WAT     H2  144   4.212   5.258   4.788
   13WAT      O  145   3.981   4.295   4.170
   13WAT     H1  146   3.892   4.329   4.160
   13WAT     H2  147   4.009   4.275   4.081
   14WAT      O  148   3.777   4.555   4.758
   14WAT     H1  149   3.834   4.478   4.758
   14WAT     H2  150   3.777   4.585   4.667
   15WAT      O  151   4.682   5.035   4.704
   15WAT     H1  152   4.676   4.941   4.688
   15WAT     H2  153   4.759   5.044   4.762
   16WAT      O  154   3.902   4.096   4.937
   16WAT     H1  155   3.884   4.006   4.965
   16WAT     H2  156   3.861   4.150   5.004
   17WAT      O  157   4.785   4.316   4.727
   17WAT     H1  158   4.823   4.228   4.716
   17WAT     H2  159   4.776   4.349   4.638
   18WAT      O  160   4.199   4.153   4.273
   18WAT     H1  161   4.209   4.243   4.304
   18WAT     H2  162   4.107   4.148   4.244
   19WAT      O  163   5.164   4.065   4.420
   19WAT     H1  164   5.246   4.016   4.425
   19WAT     H2  165   5.167   4.124   4.496
   20WAT      O  166   3.963   4.345   4.798
   20WAT     H1  167   4.031   4.372   4.860
   20WAT     H2  168   3.932   4.261   4.831
   21WAT      O  169   4.383   4.450   4.706
   21WAT     H1  170   4.433   4.500   4.770
   21WAT     H2  171   4.436   4.372   4.689
   22WAT      O  172   4.211   3.914   5.133
   22WAT     H1  173   4.211   3.966   5.053
   22WAT     H2  174   4.128   3.866   5.131
   23WAT      O  175   4.850   4.925   4.283
   23WAT     H1  176   4.788   4.971   4.227
   23WAT     H2  177   4.901   4.994   4.325
   24WAT      O  178   4.336   4.878   4.951
   24WAT     H1  179   4.303   4.940   5.015
   24WAT     H2  180   4.354   4.930   4.873
   25WAT      O  181   5.187   4.259   4.698
   25WAT     H1  182   5.117   4.288   4.756
   25WAT     H2  183   5.223   4.340   4.662
   26WAT      O  184   4.179   4.085   4.934
   26WAT     H1  185   4.213   4.169   4.904
   26WAT     H2  186   4.085   4.100   4.945
   27WAT      O  187   4.257   5.075   5.132
   27WAT     H1  188   4.319   5.142   5.104
   27WAT     H2  189   4.171   5.115   5.123
   28WAT      O  190   3.787   4.994   4.020
   28WAT     H1  191   3.749   5.042   3.947
   28WAT     H2  192   3.812   5.061   4.083
   29WAT      O  193   5.349   5.221   4.924
   29WAT     H1  194   5.281   5.288   4.923
   29WAT     H2  195   5.403   5.241   4.847
   30WAT      O  196   4.547   3.834   4.566
   30WAT     H1  197   4.578   3.778   4.495
   30WAT     H2  198   4.454   3.847   4.548
   31WAT      O  199   5.232   5.078   4.304
   31WAT     H1  200   5.221   4.983   4.317
   31WAT     H2  201   5.232   5.114   4.393
   32WAT      O  202   5.042   4.896   4.928
   32WAT     H1  203   5.084   4.874   4.845
   32WAT     H2  204   5.115   4.921   4.985
   33WAT      O  205   4.786   4.640   4.240
   33WAT     H1  206   4.694   4.634   4.263
   33WAT     H2  207   4.801   4.734   4.228
   34WAT      O  208   4.785   4.267   3.939
   34WAT     H1  209   4.691   4.284   3.948
   34WAT     H2  210   4.817   4.339   3.885
   35WAT      O  211   5.189   4.796   4.290
   35WAT     H1  212   5.127   4.763   4.225
   35WAT     H2  213   5.187   4.732   4.361
   36WAT      O  214   5.133   4.414   5.032
   36WAT     H1  215   5.092   4.497   5.057
   36WAT     H2  216   5.060   4.356   5.013
   37WAT      O  217   4.347   4.693   4.518
   37WAT     H1  218   4.306   4.622   4.468
   37WAT     H2  219   4.355   4.658   4.607
   38WAT      O  220   4.394   5.062   4.734
   38WAT     H1  221   4.364   5.001   4.666
   38WAT     H2  222   4.489   5.065   4.723
   39WAT      O  223   4.218   4.370   4.896
   39WAT     H1  224   4.273   4.381   4.819
   39WAT     H2  225   4.270   4.408   4.968
   40WAT      O  226   4.303   5.035   5.399
   40WAT     H1  227   4.213   5.058   5.424
   40WAT     H2  228   4.305   5.048   5.305
   41WAT      O  229   5.007   4.720   3.991
   41WAT     H1  230   5.051   4.637   3.976
   41WAT     H2  231   5.078   4.784   4.000
   42WAT      O  232   4.185   4.722   5.257
   42WAT     H1  233   4.172   4.810   5.294
   42WAT     H2  234   4.097   4.688   5.243
   43WAT      O  235   4.818   5.214   4.388
   43WAT     H1  236   4.862   5.288   4.346
   43WAT     H2  237   4.812   5.239   4.480
   44WAT      O  238   4.017   4.582   4.268
   44WAT     H1  239   4.005   4.655   4.207
   44WAT     H2  240   3.986   4.505   4.220
   45WAT      O  241   3.781   4.899   4.849
   45WAT     H1  242   3.788   4.913   4.754
   45WAT     H2  243   3.842   4.829   4.868
   46WAT      O  244   3.905   5.069   4.490
   46WAT     H1  245   3.864   5.084   4.404
   46WAT     H2  246   3.994   5.041   4.470
   47WAT      O  247   5.055   5.264   3.979
   47WAT     H1  248   4.985   5.264   3.913
   47WAT     H2  249   5.129   5.221   3.936
   48WAT      O  250   3.786   5.004   5.103
   48WAT     H1  251   3.803   4.957   5.021
   48WAT     H2  252   3.833   4.953   5.169
   49WAT      O  253   4.263   3.917   4.606
   49WAT     H1  254   4.219   3.995   4.573
   49WAT     H2  255   4.319   3.949   4.677
   50WAT      O  256   4.692   4.203   5.167
   50WAT     H1  257   4.646   4.224   5.248
   50WAT     H2  258   4.652   4.122   5.136
   51WAT      O  259   5.192   4.325   5.280
   51WAT     H1  260   5.107   4.295   5.312
   51WAT     H2  261   5.176   4.350   5.188
   52WAT      O  262   4.575   3.879   4.094
   52WAT     H1  263   4.513   3.878   4.167
   52WAT     H2  264   4.566   3.792   4.055
   53WAT      O  265   4.467   3.971   4.792
   53WAT     H1  266   4.497   4.062   4.784
   53WAT     H2  267   4.522   3.922   4.731
   54WAT      O  268   4.243   4.429   4.379
   54WAT     H1  269   4.220   4.407   4.470
   54WAT     H2  270   4.165   4.472   4.345
   55WAT      O  271   4.966   4.430   4.239
   55WAT     H1  272   4.906   4.502   4.221
   55WAT     H2  273   5.020   4.423   4.161
   56WAT      O  274   4.826   4.293   4.442
   56WAT     H1  275   4.866   4.325   4.361
   56WAT     H2  276   4.862   4.205   4.454
   57WAT      O  277   4.000   4.160   5.261
   57WAT     H1  278   3.960   4.245   5.282
   57WAT     H2  279   3.931   4.096   5.280
   58WAT      O  280   3.730   3.952   4.664
   58WAT     H1  281   3.701   4.009   4.736
   58WAT     H2  282   3.804   3.904   4.701
   59WAT      O  283   3.749   4.346   3.785
   59WAT     H1  284   3.740   4.441   3.800
   59WAT     H2  285   3.713   4.332   3.698
   60WAT      O  286   4.885   4.552   4.852
   60WAT     H1  287   4.812   4.603   4.886
   60WAT     H2  288   4.845   4.471   4.821
   61WAT      O  289   4.529   4.220   4.692
   61WAT     H1  290   4.529   4.176   4.607
   61WAT     H2  291   4.618   4.252   4.703
   62WAT      O  292   4.114   4.208   4.588
   62WAT     H1  293   4.080   4.256   4.664
   62WAT     H2  294   4.037   4.163   4.552
   63WAT      O  295   4.535   4.320   3.991
   63WAT     H1  296   4.547   4.316   4.086
   63WAT     H2  297   4.496   4.406   3.976
   64WAT      O  298   4.931   4.098   4.793
   64WAT     H1  299   4.933   4.143   4.877
   64WAT     H2  300   4.906   4.008   4.814
   65WAT      O  301   4.436   4.551   3.931
   65WAT     H1  302   4.379   4.506   3.868
   65WAT     H2  303   4.507   4.587   3.878
   66WAT      O  304   3.944   4.941   5.319
   66WAT     H1  305   3.905   4.877   5.379
   66WAT     H2  306   3.975   5.011   5.376
   67WAT      O  307   4.559   4.626   4.867
   67WAT     H1  308   4.595   4.578   4.941
   67WAT     H2  309   4.540   4.713   4.901
   68WAT      O  310   3.845   4.100   4.480
   68WAT     H1  311   3.817   4.064   4.563
   68WAT     H2  312   3.839   4.027   4.418
   69WAT      O  313   4.338   4.530   5.099
   69WAT     H1  314   4.307   4.618   5.121
   69WAT     H2  315   4.433   4.536   5.102
   70WAT      O  316   4.190   4.951   4.158
   70WAT     H1  317   4.113   4.897   4.142
   70WAT     H2  318   4.263   4.899   4.124
   71WAT      O  319   5.266   4.850   4.738
   71WAT     H1  320   5.338   4.900   4.698
   71WAT     H2  321   5.246   4.782   4.673
   72WAT      O  322   4.812   3.990   4.152
   72WAT     H1  323   4.731   3.940   4.144
   72WAT     H2  324   4.793   4.074   4.110
   73WAT      O  325   4.805   4.857   5.326
   73WAT     H1  326   4.798   4.765   5.301
   73WAT     H2  327   4.742   4.867   5.398
   74WAT      O  328   5.084   4.427   3.981
   74WAT     H1  329   5.173   4.458   3.964
   74WAT     H2  330   5.081   4.340   3.942
   75WAT      O  331   4.195   4.917   4.522
   75WAT     H1  332   4.247   4.837   4.517
   75WAT     H2  333   4.150   4.911   4.606
   76WAT      O  334   4.684   5.044   4.049
   76WAT     H1  335   4.718   5.118   4.000
   76WAT     H2  336   4.601   5.075   4.086
   77WAT      O  337   3.943   4.614   5.213
   77WAT     H1  338   3.907   4.681   5.272
   77WAT     H2  339   3.914   4.531   5.250
   78WAT      O  340   4.798   5.140   5.301
   78WAT     H1  341   4.799   5.046   5.279
   78WAT     H2  342   4.727   5.148   5.365
   79WAT      O  343   5.311   4.558   3.928
   79WAT     H1  344   5.303   4.601   3.843
   79WAT     H2  345   5.383   4.604   3.972
   80WAT      O  346   4.972   4.976   4.586
   80WAT     H1  347   5.007   4.916   4.520
   80WAT     H2  348   4.883   4.944   4.603
   81WAT      O  349   4.580   5.052   4.326
   81WAT     H1  350   4.649   5.107   4.365
   81WAT     H2  351   4.502   5.107   4.330
   82WAT      O  352   3.794   4.614   3.876
   82WAT     H1  353   3.881   4.642   3.904
   82WAT     H2  354   3.745   4.695   3.864
   83WAT      O  355   4.511   4.753   4.288
   83WAT     H1  356   4.556   4.834   4.310
   83WAT     H2  357   4.476   4.721   4.371
   84WAT      O  358   4.741   5.304   5.011
   84WAT     H1  359   4.805   5.324   5.078
   84WAT     H2  360   4.777   5.228   4.965
   85WAT      O  361   4.101   3.787   4.335
   85WAT     H1  362   4.088   3.786   4.430
   85WAT     H2  363   4.018   3.821   4.300
   86WAT      O  364   4.868   5.104   4.882
   86WAT     H1  365   4.933   5.034   4.894
   86WAT     H2  366   4.921   5.182   4.864
   87WAT      O  367   5.253   5.133   3.855
   87WAT     H1  368   5.230   5.061   3.914
   87WAT     H2  369   5.214   5.108   3.771
   88WAT      O  370   5.046   5.184   5.203
   88WAT     H1  371   5.079   5.243   5.271
   88WAT     H2  372   4.954   5.171   5.226
   89WAT      O  373   3.801   3.963   5.281
   89WAT     H1  374   3.729   3.983   5.342
   89WAT     H2  375   3.843   3.885   5.318
   90WAT      O  376   5.211   4.924   4.021
   90WAT     H1  377   5.182   4.970   4.100
   90WAT     H2  378   5.291   4.878   4.048
   91WAT      O  379   3.829   5.362   5.380
   91WAT     H1  380   3.840   5.268   5.366
   91WAT     H2  381   3.764   5.388   5.315
   92WAT      O  382   4.433   5.274   4.014
   92WAT     H1  383   4.432   5.347   3.952
   92WAT     H2  384   4.341   5.249   4.023
   93WAT      O  385   3.993   4.796   4.088
   93WAT     H1  386   3.932   4.870   4.089
   93WAT     H2  387   4.040   4.805   4.006
   94WAT      O  388   4.950   4.212   5.056
   94WAT     H1  389   4.987   4.130   5.089
   94WAT     H2  390   4.864   4.218   5.098
   95WAT      O  391   5.287   4.108   4.137
   95WAT     H1  392   5.224   4.118   4.066
   95WAT     H2  393   5.237   4.130   4.216
   96WAT      O  394   4.731   5.280   3.880
   96WAT     H1  395   4.741   5.259   3.787
   96WAT     H2  396   4.641   5.254   3.901
   97WAT      O  397   4.484   4.336   4.279
   97WAT     H1  398   4.413   4.382   4.323
   97WAT     H2  399   4.512   4.270   4.342
   98WAT      O  400   4.646   4.478   5.078
   98WAT     H1  401   4.696   4.525   5.145
   98WAT     H2  402   4.660   4.385   5.099
   99WAT      O  403   4.887   4.008   4.422
   99WAT     H1  404   4.874   4.010   4.328
   99WAT     H2  405   4.982   4.013   4.434
  100WAT      O  406   4.304   4.166   4.016
  100WAT     H1  407   4.389   4.210   4.009
  100WAT     H2  408   4.267   4.198   4.099
  101WAT      O  409   5.196   4.624   4.507
  101WAT     H1  410   5.102   4.625   4.525
  101WAT     H2  411   5.227   4.545   4.552
  102WAT      O  412   4.194   4.792   3.863
  102WAT     H1  413   4.271   4.781   3.920
  102WAT     H2  414   4.202   4.722   3.798
  103WAT      O  415   4.063   4.535   3.932
  103WAT     H1  416   4.071   4.440   3.943
  103WAT     H2  417   4.153   4.568   3.942
  104WAT      O  418   3.832   5.157   4.229
  104WAT     H1  419   3.739   5.181   4.229
  104WAT     H2  420   3.879   5.239   4.217
  105WAT      O  421   4.506   4.989   3.811
  105WAT     H1  422   4.496   4.928   3.883
  105WAT     H2  423   4.490   4.937   3.732
  106WAT      O  424   4.521   4.858   5.409
  106WAT     H1  425   4.445   4.915   5.400
  106WAT     H2  426   4.540   4.829   5.319
  107WAT      O  427   4.830   4.896   3.871
  107WAT     H1  428   4.775   4.940   3.936
  107WAT     H2  429   4.893   4.845   3.924
  108WAT      O  430   4.397   4.791   4.061
  108WAT     H1  431   4.439   4.775   4.145
  108WAT     H2  432   4.410   4.710   4.011
  109WAT      O  433   4.213   4.389   5.342
  109WAT     H1  434   4.160   4.340   5.279
  109WAT     H2  435   4.280   4.432   5.288
  110WAT      O  436   4.648   4.694   3.786
  110WAT     H1  437   4.700   4.622   3.749
  110WAT     H2  438   4.713   4.758   3.816
  111WAT      O  439   5.103   4.836   5.318
  111WAT     H1  440   5.145   4.852   5.403
  111WAT     H2  441   5.010   4.849   5.334
  112WAT      O  442   4.262   4.086   5.349
  112WAT     H1  443   4.253   4.024   5.277
  112WAT     H2  444   4.204   4.159   5.327
  113WAT      O  445   4.539   3.942   5.053
  113WAT     H1  446   4.494   3.944   4.968
  113WAT     H2  447   4.475   3.902   5.112
  114WAT      O  448   4.579   4.831   5.115
  114WAT     H1  449   4.621   4.916   5.098
  114WAT     H2  450   4.487   4.845   5.092
  115WAT      O  451   4.813   4.604   5.253
  115WAT     H1  452   4.825   4.545   5.327
  115WAT     H2  453   4.899   4.608   5.211
  116WAT      O  454   5.047   4.660   5.111
  116WAT     H1  455   4.994   4.712   5.051
  116WAT     H2  456   5.081   4.723   5.174
  117WAT      O  457   4.287   4.399   3.755
  117WAT     H1  458   4.267   4.312   3.792
  117WAT     H2  459   4.270   4.390   3.662
  118WAT      O  460   5.035   3.880   4.008
  118WAT     H1  461   5.063   3.796   4.044
  118WAT     H2  462   4.957   3.903   4.060
  119WAT      O  463   4.166   4.109   3.754
  119WAT     H1  464   4.197   4.109   3.663
  119WAT     H2  465   4.240   4.074   3.804
  120WAT      O  466   4.488   4.003   3.853
  120WAT     H1  467   4.454   3.935   3.795
  120WAT     H2  468   4.508   3.957   3.934
  121WAT      O  469   4.069   5.039   3.837
  121WAT     H1  470   4.113   5.093   3.903
  121WAT     H2  471   4.117   4.957   3.838
  122WAT      O  472   3.790   5.318   4.583
  122WAT     H1  473   3.823   5.231   4.559
  122WAT     H2  474   3.833   5.339   4.666
  123WAT      O  475   4.250   5.151   4.349
  123WAT     H1  476   4.220   5.139   4.439
  123WAT     H2  477   4.239   5.065   4.308
  124WAT      O  478   3.822   4.656   4.492
  124WAT     H1  479   3.757   4.629   4.428
  124WAT     H2  480   3.906   4.645   4.447
  125WAT      O  481   5.271   5.027   5.095
  125WAT     H1  482   5.190   5.070   5.121
  125WAT     H2  483   5.312   5.089   5.034
  126WAT      O  484   5.117   4.135   3.915
  126WAT     H1  485   5.159   4.117   3.831
  126WAT     H2  486   5.087   4.050   3.946
  127WAT      O  487   3.926   4.694   4.946
  127WAT     H1  488   3.963   4.686   5.034
  127WAT     H2  489   3.869   4.618   4.936
  128WAT      O  490   3.881   4.386   5.337
  128WAT     H1  491   3.792   4.382   5.371
  128WAT     H2  492   3.935   4.405   5.413
  129WAT      O  493   3.744   4.377   4.087
  129WAT     H1  494   3.653   4.403   4.069
  129WAT     H2  495   3.792   4.404   4.009
  130WAT      O  496   3.998   4.283   3.878
  130WAT     H1  497   4.069   4.240   3.829
  130WAT     H2  498   3.926   4.289   3.814
  131WAT      O  499   3.963   3.888   3.782
  131WAT     H1  500   4.035   3.942   3.813
  131WAT     H2  501   3.990   3.861   3.694
  132WAT      O  502   5.344   4.375   4.208
  132WAT     H1  503   5.393   4.352   4.287
  132WAT     H2  504   5.324   4.291   4.167
  133WAT      O  505   3.932   3.813   4.772
  133WAT     H1  506   3.996   3.758   4.728
  133WAT     H2  507   3.974   3.839   4.854
  134WAT      O  508   5.321   3.832   5.108
  134WAT     H1  509   5.385   3.894   5.144
  134WAT     H2  510   5.336   3.836   5.013
  135WAT      O  511   3.907   3.829   5.046
  135WAT     H1  512   3.872   3.874   5.123
  135WAT     H2  513   3.874   3.739   5.054
  136WAT      O  514   4.438   5.301   5.023
  136WAT     H1  515   4.414   5.328   4.934
  136WAT     H2  516   4.532   5.318   5.028
  137WAT      O  517   4.922   3.913   5.362
  137WAT     H1  518   4.983   3.945   5.296
  137WAT     H2  519   4.977   3.865   5.424
  138WAT      O  520   3.974   3.781   5.374
  138WAT     H1  521   4.029   3.763   5.297
  138WAT     H2  522   3.981   3.702   5.427
  139WAT      O  523   4.996   3.770   4.995
  139WAT     H1  524   4.909   3.803   4.975
  139WAT     H2  525   4.985   3.723   5.077
  140WAT      O  526   5.087   3.990   5.133
  140WAT     H1  527   5.054   3.909   5.095
  140WAT     H2  528   5.182   3.986   5.121
  141WAT      O  529   4.015   5.177   5.070
  141WAT     H1  530   3.942   5.115   5.063
  141WAT     H2  531   4.021   5.216   4.983
  142WAT      O  532   4.771   3.861   4.889
  142WAT     H1  533   4.693   3.909   4.917
  142WAT     H2  534   4.741   3.771   4.878
  143WAT      O  535   5.226   3.932   4.693
  143WAT     H1  536   5.270   3.926   4.609
  143WAT     H2  537   5.199   4.023   4.700
  144WAT      O  538   3.905   3.892   4.141
  144WAT     H1  539   3.981   3.903   4.084
  144WAT     H2  540   3.859   3.976   4.136
  145WAT      O  541   4.559   4.103   4.440
  145WAT     H1  542   4.478   4.066   4.406
  145WAT     H2  543   4.610   4.028   4.470
  146WAT      O  544   5.010   3.770   4.564
  146WAT     H1  545   5.070   3.827   4.611
  146WAT     H2  546   4.936   3.826   4.542
  147WAT      O  547   5.324   3.810   4.091
  147WAT     H1  548   5.343   3.900   4.118
  147WAT     H2  549   5.245   3.787   4.141
  148WAT      O  550   4.142   3.945   3.995
  148WAT     H1  551   4.195   3.866   3.982
  148WAT     H2  552   4.206   4.012   4.018
  149WAT      O  553   4.362   3.918   4.300
  149WAT     H1  554   4.299   3.848   4.317
  149WAT     H2  555   4.308   3.994   4.279
  150WAT      O  556   4.180   5.185   4.023
  150WAT     H1  557   4.117   5.231   4.078
  150WAT     H2  558   4.191   5.100   4.067
  151WAT      O  559   4.925   4.590   2.638
  151WAT     H1  560   4.917   4.498   2.611
  151WAT     H2  561   4.884   4.639   2.567
  152WAT      O  562   4.738   4.767   2.826
  152WAT     H1  563   4.661   4.719   2.855
  152WAT     H2  564   4.803   4.699   2.809
  153WAT      O  565   4.140   4.799   2.914
  153WAT     H1  566   4.057   4.773   2.954
  153WAT     H2  567   4.201   4.806   2.988
  154WAT      O  568   5.140   5.208   2.704
  154WAT     H1  569   5.094   5.131   2.737
  154WAT     H2  570   5.222   5.211   2.755
  155WAT      O  571   4.138   5.202   2.934
  155WAT     H1  572   4.168   5.113   2.916
  155WAT     H2  573   4.212   5.258   2.911
  156WAT      O  574   3.981   4.295   2.292
  156WAT     H1  575   3.892   4.329   2.282
  156WAT     H2  576   4.009   4.275   2.203
  157WAT      O  577   3.777   4.555   2.881
  157WAT     H1  578   3.834   4.478   2.881
  157WAT     H2  579   3.777   4.585   2.790
  158WAT      O  580   4.682   5.035   2.827
  158WAT     H1  581   4.676   4.941   2.811
  158WAT     H2  582   4.759   5.044   2.884
  159WAT      O  583   3.902   4.096   3.059
  159WAT     H1  584   3.884   4.006   3.087
  159WAT     H2  585   3.861   4.150   3.127
  160WAT      O  586   4.785   4.316   2.850
  160WAT     H1  587   4.823   4.228   2.838
  160WAT     H2  588   4.776   4.349   2.760
  161WAT      O  589   4.199   4.153   2.396
  161WAT     H1  590   4.209   4.243   2.426
  161WAT     H2  591   4.107   4.148   2.367
  162WAT      O  592   5.164   4.065   2.543
  162WAT     H1  593   5.246   4.016   2.547
  162WAT     H2  594   5.167   4.124   2.618
  163WAT      O  595   3.963   4.345   2.920
  163WAT     H1  596   4.031   4.372   2.982
  163WAT     H2  597   3.932   4.261   2.954
  164WAT      O  598   4.383   4.450   2.829
  164WAT     H1  599   4.433   4.500   2.893
  164WAT     H2  600   4.436   4.372   2.811
  165WAT      O  601   4.211   3.914   3.256
  165WAT     H1  602   4.211   3.966   3.175
  165WAT     H2  603   4.128   3.866   3.253
  166WAT      O  604   4.850   4.925   2.406
  166WAT     H1  605   4.788   4.971   2.349
  166WAT     H2  606   4.901   4.994   2.447
  167WAT      O  607   4.336   4.878   3.073
  167WAT     H1  608   4.303   4.940   3.138
  167WAT     H2  609   4.354   4.930   2.995
  168WAT      O  610   5.187   4.259   2.820
  168WAT     H1  611   5.117   4.288   2.878
  168WAT     H2  612   5.223   4.340   2.784
  169WAT      O  613   4.179   4.085   3.056
  169WAT     H1  614   4.213   4.169   3.027
  169WAT     H2  615   4.085   4.100   3.068
  170WAT      O  616   4.257   5.075   3.255
  170WAT     H1  617   4.319   5.142   3.227
  170WAT     H2  618   4.171   5.115   3.246
  171WAT      O  619   3.787   4.994   2.143
  171WAT     H1  620   3.749   5.042   2.070
  171WAT     H2  621   3.812   5.061   2.206
  172WAT      O  622   5.349   5.221   3.046
  172WAT     H1  623   5.281   5.288   3.046
  172WAT     H2  624   5.403   5.241   2.970
  173WAT      O  625   4.547   3.834   2.689
  173WAT     H1  626   4.578   3.778   2.617
  173WAT     H2  627   4.454   3.847   2.671
  174WAT      O  628   5.232   5.078   2.427
  174WAT     H1  629   5.221   4.983   2.439
  174WAT     H2  630   5.232   5.114   2.515
  175WAT      O  631   5.042   4.896   3.051
  175WAT     H1  632   5.084   4.874   2.967
  175WAT     H2  633   5.115   4.921   3.108
  176WAT      O  634   4.786   4.640   2.362
  176WAT     H1  635   4.694   4.634   2.385
  176WAT     H2  636   4.801   4.734   2.351
  177WAT      O  637   4.785   4.267   2.062
  177WAT     H1  638   4.691   4.284   2.071
  177WAT     H2  639   4.817   4.339   2.007
  178WAT      O  640   5.189   4.796   2.413
  178WAT     H1  641   5.127   4.763   2.348
  178WAT     H2  642   5.187   4.732   2.484
  179WAT      O  643   5.133   4.414   3.154
  179WAT     H1  644   5.092   4.497   3.180
  179WAT     H2  645   5.060   4.356   3.135
  180WAT      O  646   4.347   4.693   2.641
  180WAT     H1  647   4.306   4.622   2.591
  180WAT     H2  648   4.355   4.658   2.729
  181WAT      O  649   4.394   5.062   2.857
  181WAT     H1  650   4.364   5.001   2.789
  181WAT     H2  651   4.489   5.065   2.846
  182WAT      O  652   4.218   4.370   3.019
  182WAT     H1  653   4.273   4.381   2.941
  182WAT     H2  654   4.270   4.408   3.090
  183WAT      O  655   4.303   5.035   3.522
  183WAT     H1  656   4.213   5.058   3.547
  183WAT     H2  657   4.305   5.048   3.427
  184WAT      O  658   5.007   4.720   2.113
  184WAT     H1  659   5.051   4.637   2.099
  184WAT     H2  660   5.078   4.784   2.122
  185WAT      O  661   4.185   4.722   3.380
  185WAT     H1  662   4.172   4.810   3.417
  185WAT     H2  663   4.097   4.688   3.365
  186WAT      O  664   4.818   5.214   2.510
  186WAT     H1  665   4.862   5.288   2.469
  186WAT     H2  666   4.812   5.239   2.603
  187WAT      O  667   4.365   5.317   3.600
  187WAT     H1  668   4.362   5.357   3.514
  187WAT     H2  669   4.349   5.224   3.584
  188WAT      O  670   4.017   4.582   2.391
  188WAT     H1  671   4.005   4.655   2.329
  188WAT     H2  672   3.986   4.505   2.343
  189WAT      O  673   3.781   4.899   2.971
  189WAT     H1  674   3.788   4.913   2.877
  189WAT     H2  675   3.842   4.829   2.991
  190WAT      O  676   3.905   5.069   2.612
  190WAT     H1  677   3.864   5.084   2.527
  190WAT     H2  678   3.994   5.041   2.592
  191WAT      O  679   5.055   5.264   2.102
  191WAT     H1  680   4.985   5.264   2.036
  191WAT     H2  681   5.129   5.221   2.059
  192WAT      O  682   3.786   5.004   3.225
  192WAT     H1  683   3.803   4.957   3.143
  192WAT     H2  684   3.833   4.953   3.292
  193WAT      O  685   4.263   3.917   2.729
  193WAT     H1  686   4.219   3.995   2.696
  193WAT     H2  687   4.319   3.949   2.800
  194WAT      O  688   4.692   4.203   3.289
  194WAT     H1  689   4.646   4.224   3.370
  194WAT     H2  690   4.652   4.122   3.259
  195WAT      O  691   5.192   4.325   3.402
  195WAT     H1  692   5.107   4.295   3.434
  195WAT     H2  693   5.176   4.350   3.311
  196WAT      O  694   4.902   4.475   3.612
  196WAT     H1  695   4.934   4.392   3.578
  196WAT     H2  696   4.981   4.528   3.627
  197WAT      O  697   4.575   3.879   2.217
  197WAT     H1  698   4.513   3.878   2.289
  197WAT     H2  699   4.566   3.792   2.177
  198WAT      O  700   4.467   3.971   2.915
  198WAT     H1  701   4.497   4.062   2.907
  198WAT     H2  702   4.522   3.922   2.853
  199WAT      O  703   4.243   4.429   2.502
  199WAT     H1  704   4.220   4.407   2.592
  199WAT     H2  705   4.165   4.472   2.467
  200WAT      O  706   4.966   4.430   2.362
  200WAT     H1  707   4.906   4.502   2.343
  200WAT     H2  708   5.020   4.423   2.283
  201WAT      O  709   4.487   4.519   3.568
  201WAT     H1  710   4.477   4.425   3.553
  201WAT     H2  711   4.571   4.541   3.529
  202WAT      O  712   4.826   4.293   2.565
  202WAT     H1  713   4.866   4.325   2.483
  202WAT     H2  714   4.862   4.205   2.576
  203WAT      O  715   4.000   4.160   3.384
  203WAT     H1  716   3.960   4.245   3.404
  203WAT     H2  717   3.931   4.096   3.403
  204WAT      O  718   4.657   4.168   3.691
  204WAT     H1  719   4.588   4.149   3.754
  204WAT     H2  720   4.731   4.197   3.744
  205WAT      O  721   3.730   3.952   2.787
  205WAT     H1  722   3.701   4.009   2.858
  205WAT     H2  723   3.804   3.904   2.823
  206WAT      O  724   3.749   4.346   1.908
  206WAT     H1  725   3.740   4.441   1.922
  206WAT     H2  726   3.713   4.332   1.820
  207WAT      O  727   4.885   4.552   2.974
  207WAT     H1  728   4.812   4.603   3.009
  207WAT     H2  729   4.845   4.471   2.944
  208WAT      O  730   4.529   4.220   2.815
  208WAT     H1  731   4.529   4.176   2.730
  208WAT     H2  732   4.618   4.252   2.825
  209WAT      O  733   4.114   4.208   2.711
  209WAT     H1  734   4.080   4.256   2.786
  209WAT     H2  735   4.037   4.163   2.675
  210WAT      O  736   4.535   4.320   2.114
  210WAT     H1  737   4.547   4.316   2.209
  210WAT     H2  738   4.496   4.406   2.098
  211WAT      O  739   4.931   4.098   2.915
  211WAT     H1  740   4.933   4.143   3.000
  211WAT     H2  741   4.906   4.008   2.937
  212WAT      O  742   4.436   4.551   2.054
  212WAT     H1  743   4.379   4.506   1.991
  212WAT     H2  744   4.507   4.587   2.000
  213WAT      O  745   5.274   3.839   3.499
  213WAT     H1  746   5.306   3.766   3.552
  213WAT     H2  747   5.277   3.807   3.409
  214WAT      O  748   3.944   4.941   3.441
  214WAT     H1  749   3.905   4.877   3.501
  214WAT     H2  750   3.975   5.011   3.498
  215WAT      O  751   4.559   4.626   2.989
  215WAT     H1  752   4.595   4.578   3.064
  215WAT     H2  753   4.540   4.713   3.023
  216WAT      O  754   3.845   4.100   2.602
  216WAT     H1  755   3.817   4.064   2.686
  216WAT     H2  756   3.839   4.027   2.541
  217WAT      O  757   4.338   4.530   3.221
  217WAT     H1  758   4.307   4.618   3.244
  217WAT     H2  759   4.433   4.536   3.225
  218WAT      O  760   4.190   4.951   2.281
  218WAT     H1  761   4.113   4.897   2.265
  218WAT     H2  762   4.263   4.899   2.247
  219WAT      O  763   5.266   4.850   2.860
  219WAT     H1  764   5.338   4.900   2.821
  219WAT     H2  765   5.246   4.782   2.796
  220WAT      O  766   4.812   3.990   2.274
  220WAT     H1  767   4.731   3.940   2.267
  220WAT     H2  768   4.793   4.074   2.233
  221WAT      O  769   4.805   4.857   3.449
  221WAT     H1  770   4.798   4.765   3.423
  221WAT     H2  771   4.742   4.867   3.520
  222WAT      O  772   5.084   4.427   2.104
  222WAT     H1  773   5.173   4.458   2.087
  222WAT     H2  774   5.081   4.340   2.065
  223WAT      O  775   4.195   4.917   2.645
  223WAT     H1  776   4.247   4.837   2.639
  223WAT     H2  777   4.150   4.911   2.729
  224WAT      O  778   4.684   5.044   2.172
  224WAT     H1  779   4.718   5.118   2.122
  224WAT     H2  780   4.601   5.075   2.208
  225WAT      O  781   3.943   4.614   3.336
  225WAT     H1  782   3.907   4.681   3.395
  225WAT     H2  783   3.914   4.531   3.373
  226WAT      O  784   4.263   4.660   3.624
  226WAT     H1  785   4.233   4.674   3.535
  226WAT     H2  786   4.341   4.604   3.615
  227WAT      O  787   4.798   5.140   3.424
  227WAT     H1  788   4.799   5.046   3.402
  227WAT     H2  789   4.727   5.148   3.488
  228WAT      O  790   5.311   4.558   2.051
  228WAT     H1  791   5.303   4.601   1.966
  228WAT     H2  792   5.383   4.604   2.094
  229WAT      O  793   4.972   4.976   2.708
  229WAT     H1  794   5.007   4.916   2.642
  229WAT     H2  795   4.883   4.944   2.725
  230WAT      O  796   4.580   5.052   2.449
  230WAT     H1  797   4.649   5.107   2.487
  230WAT     H2  798   4.502   5.107   2.453
  231WAT      O  799   3.794   4.614   1.998
  231WAT     H1  800   3.881   4.642   2.027
  231WAT     H2  801   3.745   4.695   1.987
  232WAT      O  802   4.511   4.753   2.410
  232WAT     H1  803   4.556   4.834   2.433
  232WAT     H2  804   4.476   4.721   2.493
  233WAT      O  805   4.741   5.304   3.133
  233WAT     H1  806   4.805   5.324   3.201
  233WAT     H2  807   4.777   5.228   3.088
  234WAT      O  808   4.101   3.787   2.458
  234WAT     H1  809   4.088   3.786   2.552
  234WAT     H2  810   4.018   3.821   2.422
  235WAT      O  811   4.868   5.104   3.005
  235WAT     H1  812   4.933   5.034   3.016
  235WAT     H2  813   4.921   5.182   2.987
  236WAT      O  814   5.253   5.133   1.977
  236WAT     H1  815   5.230   5.061   2.037
  236WAT     H2  816   5.214   5.108   1.894
  237WAT      O  817   5.046   5.184   3.325
  237WAT     H1  818   5.079   5.243   3.393
  237WAT     H2  819   4.954   5.171   3.348
  238WAT      O  820   3.801   3.963   3.404
  238WAT     H1  821   3.729   3.983   3.464
  238WAT     H2  822   3.843   3.885   3.441
  239WAT      O  823   5.211   4.924   2.144
  239WAT     H1  824   5.182   4.970   2.222
  239WAT     H2  825   5.291   4.878   2.170
  240WAT      O  826   3.829   5.362   3.502
  240WAT     H1  827   3.840   5.268   3.488
  240WAT     H2  828   3.764   5.388   3.437
  241WAT      O  829   4.629   5.189   3.642
  241WAT     H1  830   4.597   5.117   3.697
  241WAT     H2  831   4.561   5.256   3.650
  242WAT      O  832   4.433   5.274   2.137
  242WAT     H1  833   4.432   5.347   2.075
  242WAT     H2  834   4.341   5.249   2.146
  243WAT      O  835   3.993   4.796   2.211
  243WAT     H1  836   3.932   4.870   2.212
  243WAT     H2  837   4.040   4.805   2.128
  244WAT      O  838   4.950   4.212   3.179
  244WAT     H1  839   4.987   4.130   3.211
  244WAT     H2  840   4.864   4.218   3.220
  245WAT      O  841   5.287   4.108   2.259
  245WAT     H1  842   5.224   4.118   2.188
  245WAT     H2  843   5.237   4.130   2.338
  246WAT      O  844   4.731   5.280   2.003
  246WAT     H1  845   4.741   5.259   1.910
  246WAT     H2  846   4.641   5.254   2.023
  247WAT      O  847   4.484   4.336   2.401
  247WAT     H1  848   4.413   4.382   2.445
  247WAT     H2  849   4.512   4.270   2.465
  248WAT      O  850   4.646   4.478   3.201
  248WAT     H1  851   4.696   4.525   3.268
  248WAT     H2  852   4.660   4.385   3.222
  249WAT      O  853   4.887   4.008   2.545
  249WAT     H1  854   4.874   4.010   2.450
  249WAT     H2  855   4.982   4.013   2.557
  250WAT      O  856   4.304   4.166   2.139
  250WAT     H1  857   4.389   4.210   2.132
  250WAT     H2  858   4.267   4.198   2.221
  251WAT      O  859   5.196   4.624   2.630
  251WAT     H1  860   5.102   4.625   2.647
  251WAT     H2  861   5.227   4.545   2.674
  252WAT      O  862   4.194   4.792   1.986
  252WAT     H1  863   4.271   4.781   2.042
  252WAT     H2  864   4.202   4.722   1.921
  253WAT      O  865   4.063   4.535   2.054
  253WAT     H1  866   4.071   4.440   2.065
  253WAT     H2  867   4.153   4.568   2.065
  254WAT      O  868   3.832   5.157   2.352
  254WAT     H1  869   3.739   5.181   2.351
  254WAT     H2  870   3.879   5.239   2.340
  255WAT      O  871   4.928   5.079   3.678
  255WAT     H1  872   4.867   5.082   3.604
  255WAT     H2  873   4.897   5.006   3.732
  256WAT      O  874   3.816   4.717   3.578
  256WAT     H1  875   3.866   4.659   3.635
  256WAT     H2  876   3.742   4.746   3.632
  257WAT      O  877   4.506   4.989   1.933
  257WAT     H1  878   4.496   4.928   2.006
  257WAT     H2  879   4.490   4.937   1.855
  258WAT      O  880   4.521   4.858   3.531
  258WAT     H1  881   4.445   4.915   3.523
  258WAT     H2  882   4.540   4.829   3.442
  259WAT      O  883   4.830   4.896   1.994
  259WAT     H1  884   4.775   4.940   2.058
  259WAT     H2  885   4.893   4.845   2.046
  260WAT      O  886   5.236   5.031   3.587
  260WAT     H1  887   5.310   5.065   3.537
  260WAT     H2  888   5.159   5.048   3.532
  261WAT      O  889   4.019   4.531   3.667
  261WAT     H1  890   4.023   4.502   3.758
  261WAT     H2  891   4.105   4.572   3.651
  262WAT      O  892   4.397   4.791   2.183
  262WAT     H1  893   4.439   4.775   2.268
  262WAT     H2  894   4.410   4.710   2.134
  263WAT      O  895   4.213   4.389   3.464
  263WAT     H1  896   4.160   4.340   3.401
  263WAT     H2  897   4.280   4.432   3.411
  264WAT      O  898   4.648   4.694   1.908
  264WAT     H1  899   4.700   4.622   1.872
  264WAT     H2  900   4.713   4.758   1.938
  265WAT      O  901   5.103   4.836   3.440
  265WAT     H1  902   5.145   4.852   3.525
  265WAT     H2  903   5.010   4.849   3.457
  266WAT      O  904   5.150   4.570   3.641
  266WAT     H1  905   5.209   4.495   3.632
  266WAT     H2  906   5.168   4.623   3.563
  267WAT      O  907   4.262   4.086   3.472
  267WAT     H1  908   4.253   4.024   3.400
  267WAT     H2  909   4.204   4.159   3.449
  268WAT      O  910   4.539   3.942   3.175
  268WAT     H1  911   4.494   3.944   3.091
  268WAT     H2  912   4.475   3.902   3.235
  269WAT      O  913   4.579   4.831   3.237
  269WAT     H1  914   4.621   4.916   3.220
  269WAT     H2  915   4.487   4.845   3.215
  270WAT      O  916   4.813   4.604   3.376
  270WAT     H1  917   4.825   4.545   3.450
  270WAT     H2  918   4.899   4.608   3.334
  271WAT      O  919   5.047   4.660   3.233
  271WAT     H1  920   4.994   4.712   3.173
  271WAT     H2  921   5.081   4.723   3.297
  272WAT      O  922   4.287   4.399   1.878
  272WAT     H1  923   4.267   4.312   1.914
  272WAT     H2  924   4.270   4.390   1.784
  273WAT      O  925   4.490   4.259   3.502
  273WAT     H1  926   4.549   4.228   3.570
  273WAT     H2  927   4.408   4.211   3.517
  274WAT      O  928   4.972   4.220   3.525
  274WAT     H1  929   4.903   4.154   3.518
  274WAT     H2  930   5.044   4.176   3.569
  275WAT      O  931   5.035   3.880   2.131
  275WAT     H1  932   5.063   3.796   2.166
  275WAT     H2  933   4.957   3.903   2.182
  276WAT      O  934   4.166   4.109   1.877
  276WAT     H1  935   4.197   4.109   1.786
  276WAT     H2  936   4.240   4.074   1.926
  277WAT      O  937   4.488   4.003   1.975
  277WAT     H1  938   4.454   3.935   1.917
  277WAT     H2  939   4.508   3.957   2.057
  278WAT      O  940   4.069   5.039   1.960
  278WAT     H1  941   4.113   5.093   2.026
  278WAT     H2  942   4.117   4.957   1.961
  279WAT      O  943   3.790   5.318   2.705
  279WAT     H1  944   3.823   5.231   2.682
  279WAT     H2  945   3.833   5.339   2.788
  280WAT      O  946   4.250   5.151   2.471
  280WAT     H1  947   4.220   5.139   2.561
  280WAT     H2  948   4.239   5.065   2.430
  281WAT      O  949   3.822   4.656   2.615
  281WAT     H1  950   3.757   4.629   2.551
  281WAT     H2  951   3.906   4.645   2.570
  282WAT      O  952   5.271   5.027   3.218
  282WAT     H1  953   5.190   5.070   3.244
  282WAT     H2  954   5.312   5.089   3.156
  283WAT      O  955   5.117   4.135   2.037
  283WAT     H1  956   5.159   4.117   1.953
  283WAT     H2  957   5.087   4.050   2.068
  284WAT      O  958   3.926   4.694   3.069
  284WAT     H1  959   3.963   4.686   3.157
  284WAT     H2  960   3.869   4.618   3.059
  285WAT      O  961   3.881   4.386   3.460
  285WAT     H1  962   3.792   4.382   3.493
  285WAT     H2  963   3.935   4.405   3.536
  286WAT      O  964   5.250   4.064   3.648
  286WAT     H1  965   5.338   4.065   3.686
  286WAT     H2  966   5.251   3.990   3.587
  287WAT      O  967   3.744   4.377   2.209
  287WAT     H1  968   3.653   4.403   2.192
  287WAT     H2  969   3.792   4.404   2.131
  288WAT      O  970   3.998   4.283   2.000
  288WAT     H1  971   4.069   4.240   1.952
  288WAT     H2  972   3.926   4.289   1.937
  289WAT      O  973   3.963   3.888   1.904
  289WAT     H1  974   4.035   3.942   1.936
  289WAT     H2  975   3.990   3.861   1.817
  290WAT      O  976   5.344   4.375   2.331
  290WAT     H1  977   5.393   4.352   2.409
  290WAT     H2  978   5.324   4.291   2.289
  291WAT      O  979   3.932   3.813   2.894
  291WAT     H1  980   3.996   3.758   2.850
  291WAT     H2  981   3.974   3.839   2.977
  292WAT      O  982   5.321   3.832   3.230
  292WAT     H1  983   5.385   3.894   3.267
  292WAT     H2  984   5.336   3.836   3.136
  293WAT      O  985   3.907   3.829   3.169
  293WAT     H1  986   3.872   3.874   3.245
  293WAT     H2  987   3.874   3.739   3.177
  294WAT      O  988   4.068   5.146   3.585
  294WAT     H1  989   4.063   5.109   3.673
  294WAT     H2  990   4.081   5.240   3.599
  295WAT      O  991   4.438   5.301   3.145
  295WAT     H1  992   4.414   5.328   3.057
  295WAT     H2  993   4.532   5.318   3.151
  296WAT      O  994   4.658   3.948   3.521
  296WAT     H1  995   4.652   4.007   3.596
  296WAT     H2  996   4.752   3.937   3.506
  297WAT      O  997   4.922   3.913   3.485
  297WAT     H1  998   4.983   3.945   3.419
  297WAT     H2  999   4.977   3.865   3.547
  298WAT      O 1000   3.974   3.781   3.496
  298WAT     H1 1001   4.029   3.763   3.420
  298WAT     H2 1002   3.981   3.702   3.550
  299WAT      O 1003   4.996   3.770   3.117
  299WAT     H1 1004   4.909   3.803   3.097
  299WAT     H2 1005   4.985   3.723   3.200
  300WAT      O 1006   5.087   3.990   3.256
  300WAT     H1 1007   5.054   3.909   3.218
  300WAT     H2 1008   5.182   3.986   3.244
  301WAT      O 1009   4.015   5.177   3.192
  301WAT     H1 1010   3.942   5.115   3.185
  301WAT     H2 1011   4.021   5.216   3.105
  302WAT      O 1012   4.771   3.861   3.011
  302WAT     H1 1013   4.693   3.909   3.039
  302WAT     H2 1014   4.741   3.771   3.001
  303WAT      O 1015   5.226   3.932   2.816
  303WAT     H1 1016   5.270   3.926   2.731
  303WAT     H2 1017   5.199   4.023   2.823
  304WAT      O 1018   3.905   3.892   2.264
  304WAT     H1 1019   3.981   3.903   2.206
  304WAT     H2 1020   3.859   3.976   2.259
  305WAT      O 1021   4.559   4.103   2.563
  305WAT     H1 1022   4.478   4.066   2.528
  305WAT     H2 1023   4.610   4.028   2.593
  306WAT      O 1024   5.010   3.770   2.686
  306WAT     H1 1025   5.070   3.827   2.734
  306WAT     H2 1026   4.936   3.826   2.664
  307WAT      O 1027   5.324   3.810   2.214
  307WAT     H1 1028   5.343   3.900   2.240
  307WAT     H2 1029   5.245   3.787   2.263
  308WAT      O 1030   4.142   3.945   2.118
  308WAT     H1 1031   4.195   3.866   2.105
  308WAT     H2 1032   4.206   4.012   2.141
  309WAT      O 1033   4.362   3.918   2.423
  309WAT     H1 1034   4.299   3.848   2.440
  309WAT     H2 1035   4.308   3.994   2.401
  310WAT      O 1036   4.374   3.846   3.667
  310WAT     H1 1037   4.346   3.897   3.590
  310WAT     H2 1038   4.413   3.766   3.630
  311WAT      O 1039   4.180   5.185   2.146
  311WAT     H1 1040   4.117   5.231   2.201
  311WAT     H2 1041   4.191   5.100   2.189
  312WAT      O 1042   5.035   3.788   3.724
  312WAT     H1 1043   5.023   3.820   3.814
  312WAT     H2 1044   5.116   3.828   3.695
  313WAT      O 1045   4.925   4.590   0.761
  313WAT     H1 1046   4.917   4.498   0.734
  313WAT     H2 1047   4.884   4.639   0.690
  314WAT      O 1048   4.738   4.767   0.949
  314WAT     H1 1049   4.661   4.719   0.978
  314WAT     H2 1050   4.803   4.699   0.931
  315WAT      O 1051   4.140   4.799   1.037
  315WAT     H1 1052   4.057   4.773   1.076
  315WAT     H2 1053   4.201   4.806   1.110
  316WAT      O 1054   5.140   5.208   0.827
  316WAT     H1 1055   5.094   5.131   0.860
  316WAT     H2 1056   5.222   5.211   0.877
  317WAT      O 1057   4.138   5.202   1.056
  317WAT     H1 1058   4.168   5.113   1.038
  317WAT     H2 1059   4.212   5.258   1.033
  318WAT      O 1060   3.981   4.295   0.415
  318WAT     H1 1061   3.892   4.329   0.405
  318WAT     H2 1062   4.009   4.275   0.326
  319WAT      O 1063   3.777   4.555   1.003
  319WAT     H1 1064   3.834   4.478   1.003
  319WAT     H2 1065   3.777   4.585   0.912
  320WAT      O 1066   4.682   5.035   0.949
  320WAT     H1 1067   4.676   4.941   0.933
  320WAT     H2 1068   4.759   5.044   1.007
  321WAT      O 1069   3.902   4.096   1.182
  321WAT     H1 1070   3.884   4.006   1.210
  321WAT     H2 1071   3.861   4.150   1.249
  322WAT      O 1072   4.785   4.316   0.972
  322WAT     H1 1073   4.823   4.228   0.961
  322WAT     H2 1074   4.776   4.349   0.883
  323WAT      O 1075   4.199   4.153   0.518
  323WAT     H1 1076   4.209   4.243   0.549
  323WAT     H2 1077   4.107   4.148   0.489
  324WAT      O 1078   5.164   4.065   0.665
  324WAT     H1 1079   5.246   4.016   0.670
  324WAT     H2 1080   5.167   4.124   0.741
  325WAT      O 1081   3.963   4.345   1.043
  325WAT     H1 1082   4.031   4.372   1.105
  325WAT     H2 1083   3.932   4.261   1.076
  326WAT      O 1084   4.383   4.450   0.952
  326WAT     H1 1085   4.433   4.500   1.016
  326WAT     H2 1086   4.436   4.372   0.934
  327WAT      O 1087   4.211   3.914   1.378
  327WAT     H1 1088   4.211   3.966   1.298
  327WAT     H2 1089   4.128   3.866   1.376
  328WAT      O 1090   4.850   4.925   0.528
  328WAT     H1 1091   4.788   4.971   0.472
  328WAT     H2 1092   4.901   4.994   0.570
  329WAT      O 1093   4.336   4.878   1.196
  329WAT     H1 1094   4.303   4.940   1.260
  329WAT     H2 1095   4.354   4.930   1.118
  330WAT      O 1096   5.187   4.259   0.943
  330WAT     H1 1097   5.117   4.288   1.001
  330WAT     H2 1098   5.223   4.340   0.907
  331WAT      O 1099   4.179   4.085   1.179
  331WAT     H1 1100   4.213   4.169   1.149
  331WAT     H2 1101   4.085   4.100   1.191
  332WAT      O 1102   4.257   5.075   1.377
  332WAT     H1 1103   4.319   5.142   1.349
  332WAT     H2 1104   4.171   5.115   1.368
  333WAT      O 1105   3.787   4.994   0.265
  333WAT     H1 1106   3.749   5.042   0.192
  333WAT     H2 1107   3.812   5.061   0.329
  334WAT      O 1108   5.349   5.221   1.169
  334WAT     H1 1109   5.281   5.288   1.168
  334WAT     H2 1110   5.403   5.241   1.092
  335WAT      O 1111   4.547   3.834   0.811
  335WAT     H1 1112   4.578   3.778   0.740
  335WAT     H2 1113   4.454   3.847   0.793
  336WAT      O 1114   5.232   5.078   0.549
  336WAT     H1 1115   5.221   4.983   0.562
  336WAT     H2 1116   5.232   5.114   0.638
  337WAT      O 1117   5.042   4.896   1.173
  337WAT     H1 1118   5.084   4.874   1.090
  337WAT     H2 1119   5.115   4.921   1.230
  338WAT      O 1120   4.786   4.640   0.485
  338WAT     H1 1121   4.694   4.634   0.508
  338WAT     H2 1122   4.801   4.734   0.474
  339WAT      O 1123   5.189   4.796   0.535
  339WAT     H1 1124   5.127   4.763   0.471
  339WAT     H2 1125   5.187   4.732   0.606
  340WAT      O 1126   5.133   4.414   1.277
  340WAT     H1 1127   5.092   4.497   1.302
  340WAT     H2 1128   5.060   4.356   1.258
  341WAT      O 1129   4.347   4.693   0.763
  341WAT     H1 1130   4.306   4.622   0.714
  341WAT     H2 1131   4.355   4.658   0.852
  342WAT      O 1132   4.394   5.062   0.980
  342WAT     H1 1133   4.364   5.001   0.912
  342WAT     H2 1134   4.489   5.065   0.968
  343WAT      O 1135   4.218   4.370   1.141
  343WAT     H1 1136   4.273   4.381   1.064
  343WAT     H2 1137   4.270   4.408   1.213
  344WAT      O 1138   4.303   5.035   1.645
  344WAT     H1 1139   4.213   5.058   1.669
  344WAT     H2 1140   4.305   5.048   1.550
  345WAT      O 1141   5.007   4.720   0.236
  345WAT     H1 1142   5.051   4.637   0.221
  345WAT     H2 1143   5.078   4.784   0.245
  346WAT      O 1144   4.185   4.722   1.502
  346WAT     H1 1145   4.172   4.810   1.539
  346WAT     H2 1146   4.097   4.688   1.488
  347WAT      O 1147   4.818   5.214   0.633
  347WAT     H1 1148   4.862   5.288   0.591
  347WAT     H2 1149   4.812   5.239   0.725
  348WAT      O 1150   4.365   5.317   1.723
  348WAT     H1 1151   4.362   5.357   1.636
  348WAT     H2 1152   4.349   5.224   1.707
  349WAT      O 1153   4.017   4.582   0.513
  349WAT     H1 1154   4.005   4.655   0.452
  349WAT     H2 1155   3.986   4.505   0.465
  350WAT      O 1156   3.781   4.899   1.094
  350WAT     H1 1157   3.788   4.913   0.999
  350WAT     H2 1158   3.842   4.829   1.113
  351WAT      O 1159   3.905   5.069   0.735
  351WAT     H1 1160   3.864   5.084   0.650
  351WAT     H2 1161   3.994   5.041   0.715
  352WAT      O 1162   3.786   5.004   1.348
  352WAT     H1 1163   3.803   4.957   1.266
  352WAT     H2 1164   3.833   4.953   1.414
  353WAT      O 1165   4.263   3.917   0.851
  353WAT     H1 1166   4.219   3.995   0.818
  353WAT     H2 1167   4.319   3.949   0.922
  354WAT      O 1168   4.692   4.203   1.412
  354WAT     H1 1169   4.646   4.224   1.493
  354WAT     H2 1170   4.652   4.122   1.382
  355WAT      O 1171   5.192   4.325   1.525
  355WAT     H1 1172   5.107   4.295   1.557
  355WAT     H2 1173   5.176   4.350   1.434
  356WAT      O 1174   4.902   4.475   1.735
  356WAT     H1 1175   4.934   4.392   1.701
  356WAT     H2 1176   4.981   4.528   1.750
  357WAT      O 1177   4.575   3.879   0.340
  357WAT     H1 1178   4.513   3.878   0.412
  357WAT     H2 1179   4.566   3.792   0.300
  358WAT      O 1180   4.467   3.971   1.037
  358WAT     H1 1181   4.497   4.062   1.029
  358WAT     H2 1182   4.522   3.922   0.976
  359WAT      O 1183   4.243   4.429   0.624
  359WAT     H1 1184   4.220   4.407   0.715
  359WAT     H2 1185   4.165   4.472   0.590
  360WAT      O 1186   4.966   4.430   0.484
  360WAT     H1 1187   4.906   4.502   0.466
  360WAT     H2 1188   5.020   4.423   0.406
  361WAT      O 1189   4.487   4.519   1.691
  361WAT     H1 1190   4.477   4.425   1.676
  361WAT     H2 1191   4.571   4.541   1.651
  362WAT      O 1192   4.826   4.293   0.687
  362WAT     H1 1193   4.866   4.325   0.606
  362WAT     H2 1194   4.862   4.205   0.699
  363WAT      O 1195   4.000   4.160   1.506
  363WAT     H1 1196   3.960   4.245   1.527
  363WAT     H2 1197   3.931   4.096   1.525
  364WAT      O 1198   4.657   4.168   1.813
  364WAT     H1 1199   4.588   4.149   1.877
  364WAT     H2 1200   4.731   4.197   1.866
  365WAT      O 1201   3.730   3.952   0.910
  365WAT     H1 1202   3.701   4.009   0.981
  365WAT     H2 1203   3.804   3.904   0.946
  366WAT      O 1204   4.885   4.552   1.097
  366WAT     H1 1205   4.812   4.603   1.132
  366WAT     H2 1206   4.845   4.471   1.067
  367WAT      O 1207   4.529   4.220   0.937
  367WAT     H1 1208   4.529   4.176   0.852
  367WAT     H2 1209   4.618   4.252   0.948
  368WAT      O 1210   4.114   4.208   0.833
  368WAT     H1 1211   4.080   4.256   0.909
  368WAT     H2 1212   4.037   4.163   0.797
  369WAT      O 1213   4.535   4.320   0.236
  369WAT     H1 1214   4.547   4.316   0.331
  369WAT     H2 1215   4.496   4.406   0.221
  370WAT      O 1216   4.931   4.098   1.038
  370WAT     H1 1217   4.933   4.143   1.122
  370WAT     H2 1218   4.906   4.008   1.059
  371WAT      O 1219   5.274   3.839   1.622
  371WAT     H1 1220   5.306   3.766   1.674
  371WAT     H2 1221   5.277   3.807   1.532
  372WAT      O 1222   3.944   4.941   1.564
  372WAT     H1 1223   3.905   4.877   1.624
  372WAT     H2 1224   3.975   5.011   1.621
  373WAT      O 1225   4.559   4.626   1.112
  373WAT     H1 1226   4.595   4.578   1.187
  373WAT     H2 1227   4.540   4.713   1.146
  374WAT      O 1228   3.845   4.100   0.725
  374WAT     H1 1229   3.817   4.064   0.809
  374WAT     H2 1230   3.839   4.027   0.663
  375WAT      O 1231   4.338   4.530   1.344
  375WAT     H1 1232   4.307   4.618   1.366
  375WAT     H2 1233   4.433   4.536   1.347
  376WAT      O 1234   4.190   4.951   0.403
  376WAT     H1 1235   4.113   4.897   0.387
  376WAT     H2 1236   4.263   4.899   0.370
  377WAT      O 1237   5.266   4.850   0.983
  377WAT     H1 1238   5.338   4.900   0.944
  377WAT     H2 1239   5.246   4.782   0.918
  378WAT      O 1240   4.812   3.990   0.397
  378WAT     H1 1241   4.731   3.940   0.389
  378WAT     H2 1242   4.793   4.074   0.355
  379WAT      O 1243   4.805   4.857   1.571
  379WAT     H1 1244   4.798   4.765   1.546
  379WAT     H2 1245   4.742   4.867   1.643
  380WAT      O 1246   5.084   4.427   0.227
  380WAT     H1 1247   5.173   4.458   0.209
  380WAT     H2 1248   5.081   4.340   0.187
  381WAT      O 1249   4.195   4.917   0.767
  381WAT     H1 1250   4.247   4.837   0.762
  381WAT     H2 1251   4.150   4.911   0.851
  382WAT      O 1252   4.684   5.044   0.294
  382WAT     H1 1253   4.718   5.118   0.245
  382WAT     H2 1254   4.601   5.075   0.331
  383WAT      O 1255   3.943   4.614   1.458
  383WAT     H1 1256   3.907   4.681   1.517
  383WAT     H2 1257   3.914   4.531   1.496
  384WAT      O 1258   4.263   4.660   1.747
  384WAT     H1 1259   4.233   4.674   1.657
  384WAT     H2 1260   4.341   4.604   1.738
  385WAT      O 1261   4.798   5.140   1.546
  385WAT     H1 1262   4.799   5.046   1.525
  385WAT     H2 1263   4.727   5.148   1.610
  386WAT      O 1264   4.972   4.976   0.831
  386WAT     H1 1265   5.007   4.916   0.765
  386WAT     H2 1266   4.883   4.944   0.848
  387WAT      O 1267   4.580   5.052   0.572
  387WAT     H1 1268   4.649   5.107   0.610
  387WAT     H2 1269   4.502   5.107   0.575
  388WAT      O 1270   4.511   4.753   0.533
  388WAT     H1 1271   4.556   4.834   0.555
  388WAT     H2 1272   4.476   4.721   0.616
  389WAT      O 1273   4.741   5.304   1.256
  389WAT     H1 1274   4.805   5.324   1.324
  389WAT     H2 1275   4.777   5.228   1.211
  390WAT      O 1276   4.101   3.787   0.580
  390WAT     H1 1277   4.088   3.786   0.675
  390WAT     H2 1278   4.018   3.821   0.545
  391WAT      O 1279   4.868   5.104   1.128
  391WAT     H1 1280   4.933   5.034   1.139
  391WAT     H2 1281   4.921   5.182   1.110
  392WAT      O 1282   5.046   5.184   1.448
  392WAT     H1 1283   5.079   5.243   1.516
  392WAT     H2 1284   4.954   5.171   1.471
  393WAT      O 1285   3.801   3.963   1.526
  393WAT     H1 1286   3.729   3.983   1.587
  393WAT     H2 1287   3.843   3.885   1.563
  394WAT      O 1288   5.211   4.924   0.266
  394WAT     H1 1289   5.182   4.970   0.345
  394WAT     H2 1290   5.291   4.878   0.293
  395WAT      O 1291   3.829   5.362   1.625
  395WAT     H1 1292   3.840   5.268   1.611
  395WAT     H2 1293   3.764   5.388   1.560
  396WAT      O 1294   4.629   5.189   1.765
  396WAT     H1 1295   4.597   5.117   1.819
  396WAT     H2 1296   4.561   5.256   1.772
  397WAT      O 1297   4.433   5.274   0.259
  397WAT     H1 1298   4.432   5.347   0.198
  397WAT     H2 1299   4.341   5.249   0.268
  398WAT      O 1300   3.993   4.796   0.334
  398WAT     H1 1301   3.932   4.870   0.335
  398WAT     H2 1302   4.040   4.805   0.251
  399WAT      O 1303   4.950   4.212   1.301
  399WAT     H1 1304   4.987   4.130   1.334
  399WAT     H2 1305   4.864   4.218   1.343
  400WAT      O 1306   5.287   4.108   0.382
  400WAT     H1 1307   5.224   4.118   0.311
  400WAT     H2 1308   5.237   4.130   0.461
  401WAT      O 1309   4.484   4.336   0.524
  401WAT     H1 1310   4.413   4.382   0.568
  401WAT     H2 1311   4.512   4.270   0.587
  402WAT      O 1312   4.646   4.478   1.324
  402WAT     H1 1313   4.696   4.525   1.390
  402WAT     H2 1314   4.660   4.385   1.344
  403WAT      O 1315   4.887   4.008   0.668
  403WAT     H1 1316   4.874   4.010   0.573
  403WAT     H2 1317   4.982   4.013   0.680
  404WAT      O 1318   4.304   4.166   0.261
  404WAT     H1 1319   4.389   4.210   0.255
  404WAT     H2 1320   4.267   4.198   0.344
  405WAT      O 1321   5.196   4.624   0.752
  405WAT     H1 1322   5.102   4.625   0.770
  405WAT     H2 1323   5.227   4.545   0.797
  406WAT      O 1324   4.063   4.535   0.177
  406WAT     H1 1325   4.071   4.440   0.188
  406WAT     H2 1326   4.153   4.568   0.187
  407WAT      O 1327   3.832   5.157   0.475
  407WAT     H1 1328   3.739   5.181   0.474
  407WAT     H2 1329   3.879   5.239   0.462
  408WAT      O 1330   4.928   5.079   1.801
  408WAT     H1 1331   4.867   5.082   1.727
  408WAT     H2 1332   4.897   5.006   1.854
  409WAT      O 1333   3.816   4.717   1.700
  409WAT     H1 1334   3.866   4.659   1.758
  409WAT     H2 1335   3.742   4.746   1.754
  410WAT      O 1336   4.521   4.858   1.654
  410WAT     H1 1337   4.445   4.915   1.645
  410WAT     H2 1338   4.540   4.829   1.564
  411WAT      O 1339   5.236   5.031   1.709
  411WAT     H1 1340   5.310   5.065   1.659
  411WAT     H2 1341   5.159   5.048   1.654
  412WAT      O 1342   4.019   4.531   1.790
  412WAT     H1 1343   4.023   4.502   1.881
  412WAT     H2 1344   4.105   4.572   1.774
  413WAT      O 1345   4.397   4.791   0.306
  413WAT     H1 1346   4.439   4.775   0.390
  413WAT     H2 1347   4.410   4.710   0.256
  414WAT      O 1348   4.213   4.389   1.587
  414WAT     H1 1349   4.160   4.340   1.524
  414WAT     H2 1350   4.280   4.432   1.533
  415WAT      O 1351   5.103   4.836   1.563
  415WAT     H1 1352   5.145   4.852   1.648
  415WAT     H2 1353   5.010   4.849   1.579
  416WAT      O 1354   5.150   4.570   1.763
  416WAT     H1 1355   5.209   4.495   1.755
  416WAT     H2 1356   5.168   4.623   1.686
  417WAT      O 1357   4.262   4.086   1.595
  417WAT     H1 1358   4.253   4.024   1.522
  417WAT     H2 1359   4.204   4.159   1.572
  418WAT      O 1360   4.539   3.942   1.298
  418WAT     H1 1361   4.494   3.944   1.213
  418WAT     H2 1362   4.475   3.902   1.358
  419WAT      O 1363   4.579   4.831   1.360
  419WAT     H1 1364   4.621   4.916   1.343
  419WAT     H2 1365   4.487   4.845   1.337
  420WAT      O 1366   4.813   4.604   1.498
  420WAT     H1 1367   4.825   4.545   1.572
  420WAT     H2 1368   4.899   4.608   1.456
  421WAT      O 1369   5.047   4.660   1.356
  421WAT     H1 1370   4.994   4.712   1.296
  421WAT     H2 1371   5.081   4.723   1.419
  422WAT      O 1372   4.490   4.259   1.624
  422WAT     H1 1373   4.549   4.228   1.693
  422WAT     H2 1374   4.408   4.211   1.640
  423WAT      O 1375   4.972   4.220   1.647
  423WAT     H1 1376   4.903   4.154   1.641
  423WAT     H2 1377   5.044   4.176   1.692
  424WAT      O 1378   5.035   3.880   0.253
  424WAT     H1 1379   5.063   3.796   0.289
  424WAT     H2 1380   4.957   3.903   0.305
  425WAT      O 1381   3.790   5.318   0.828
  425WAT     H1 1382   3.823   5.231   0.805
  425WAT     H2 1383   3.833   5.339   0.911
  426WAT      O 1384   4.250   5.151   0.594
  426WAT     H1 1385   4.220   5.139   0.684
  426WAT     H2 1386   4.239   5.065   0.553
  427WAT      O 1387   3.822   4.656   0.737
  427WAT     H1 1388   3.757   4.629   0.673
  427WAT     H2 1389   3.906   4.645   0.693
  428WAT      O 1390   5.271   5.027   1.340
  428WAT     H1 1391   5.190   5.070   1.366
  428WAT     H2 1392   5.312   5.089   1.279
  429WAT      O 1393   3.926   4.694   1.192
  429WAT     H1 1394   3.963   4.686   1.279
  429WAT     H2 1395   3.869   4.618   1.182
  430WAT      O 1396   3.881   4.386   1.582
  430WAT     H1 1397   3.792   4.382   1.616
  430WAT     H2 1398   3.935   4.405   1.659
  431WAT      O 1399   5.250   4.064   1.771
  431WAT     H1 1400   5.338   4.065   1.809
  431WAT     H2 1401   5.251   3.990   1.710
  432WAT      O 1402   3.744   4.377   0.332
  432WAT     H1 1403   3.653   4.403   0.314
  432WAT     H2 1404   3.792   4.404   0.254
  433WAT      O 1405   5.344   4.375   0.453
  433WAT     H1 1406   5.393   4.352   0.532
  433WAT     H2 1407   5.324   4.291   0.412
  434WAT      O 1408   3.932   3.813   1.017
  434WAT     H1 1409   3.996   3.758   0.973
  434WAT     H2 1410   3.974   3.839   1.099
  435WAT      O 1411   5.321   3.832   1.353
  435WAT     H1 1412   5.385   3.894   1.389
  435WAT     H2 1413   5.336   3.836   1.258
  436WAT      O 1414   3.907   3.829   1.291
  436WAT     H1 1415   3.872   3.874   1.368
  436WAT     H2 1416   3.874   3.739   1.299
  437WAT      O 1417   4.068   5.146   1.708
  437WAT     H1 1418   4.063   5.109   1.796
  437WAT     H2 1419   4.081   5.240   1.722
  438WAT      O 1420   4.438   5.301   1.268
  438WAT     H1 1421   4.414   5.328   1.179
  438WAT     H2 1422   4.532   5.318   1.273
  439WAT      O 1423   4.658   3.948   1.643
  439WAT     H1 1424   4.652   4.007   1.718
  439WAT     H2 1425   4.752   3.937   1.629
  440WAT      O 1426   4.922   3.913   1.607
  440WAT     H1 1427   4.983   3.945   1.541
  440WAT     H2 1428   4.977   3.865   1.669
  441WAT      O 1429   3.974   3.781   1.619
  441WAT     H1 1430   4.029   3.763   1.542
  441WAT     H2 1431   3.981   3.702   1.672
  442WAT      O 1432   4.996   3.770   1.240
  442WAT     H1 1433   4.909   3.803   1.220
  442WAT     H2 1434   4.985   3.723   1.323
  443WAT      O 1435   5.087   3.990   1.378
  443WAT     H1 1436   5.054   3.909   1.340
  443WAT     H2 1437   5.182   3.986   1.366
  444WAT      O 1438   4.015   5.177   1.315
  444WAT     H1 1439   3.942   5.115   1.308
  444WAT     H2 1440   4.021   5.216   1.228
  445WAT      O 1441   4.771   3.861   1.134
  445WAT     H1 1442   4.693   3.909   1.162
  445WAT     H2 1443   4.741   3.771   1.123
  446WAT      O 1444   5.226   3.932   0.938
  446WAT     H1 1445   5.270   3.926   0.854
  446WAT     H2 1446   5.199   4.023   0.946
  447WAT      O 1447   3.905   3.892   0.386
  447WAT     H1 1448   3.981   3.903   0.329
  447WAT     H2 1449   3.859   3.976   0.382
  448WAT      O 1450   4.559   4.103   0.685
  448WAT     H1 1451   4.478   4.066   0.651
  448WAT     H2 1452   4.610   4.028   0.715
  449WAT      O 1453   5.010   3.770   0.809
  449WAT     H1 1454   5.070   3.827   0.856
  449WAT     H2 1455   4.936   3.826   0.787
  450WAT      O 1456   5.324   3.810   0.336
  450WAT     H1 1457   5.343   3.900   0.363
  450WAT     H2 1458   5.245   3.787   0.386
  451WAT      O 1459   4.142   3.945   0.240
  451WAT     H1 1460   4.195   3.866   0.227
  451WAT     H2 1461   4.206   4.012   0.263
  452WAT      O 1462   4.362   3.918   0.546
  452WAT     H1 1463   4.299   3.848   0.562
  452WAT     H2 1464   4.308   3.994   0.524
  453WAT      O 1465   4.374   3.846   1.789
  453WAT     H1 1466   4.346   3.897   1.713
  453WAT     H2 1467   4.413   3.766   1.752
  454WAT      O 1468   4.180   5.185   0.268
  454WAT     H1 1469   4.117   5.231   0.323
  454WAT     H2 1470   4.191   5.100   0.312
  455WAT      O 1471   5.035   3.788   1.847
  455WAT     H1 1472   5.023   3.820   1.936
  455WAT     H2 1473   5.116   3.828   1.817
  456WAT      O 1474   4.925   2.712   4.516
  456WAT     H1 1475   4.917   2.621   4.488
  456WAT     H2 1476   4.884   2.762   4.445
  457WAT      O 1477   4.738   2.890   4.704
  457WAT     H1 1478   4.661   2.842   4.733
  457WAT     H2 1479   4.803   2.822   4.686
  458WAT      O 1480   4.140   2.921   4.791
  458WAT     H1 1481   4.057   2.896   4.831
  458WAT     H2 1482   4.201   2.928   4.865
  459WAT      O 1483   5.140   3.331   4.582
  459WAT     H1 1484   5.094   3.253   4.614
  459WAT     H2 1485   5.222   3.333   4.632
  460WAT      O 1486   4.138   3.325   4.811
  460WAT     H1 1487   4.168   3.236   4.793
  460WAT     H2 1488   4.212   3.380   4.788
  461WAT      O 1489   3.981   2.417   4.170
  461WAT     H1 1490   3.892   2.451   4.160
  461WAT     H2 1491   4.009   2.397   4.081
  462WAT      O 1492   3.777   2.677   4.758
  462WAT     H1 1493   3.834   2.600   4.758
  462WAT     H2 1494   3.777   2.707   4.667
  463WAT      O 1495   4.763   3.559   4.544
  463WAT     H1 1496   4.701   3.605   4.487
  463WAT     H2 1497   4.849   3.575   4.504
  464WAT      O 1498   4.682   3.158   4.704
  464WAT     H1 1499   4.676   3.063   4.688
  464WAT     H2 1500   4.759   3.167   4.762
  465WAT      O 1501   3.902   2.218   4.937
  465WAT     H1 1502   3.884   2.128   4.965
  465WAT     H2 1503   3.861   2.273   5.004
  466WAT      O 1504   4.785   2.438   4.727
  466WAT     H1 1505   4.823   2.351   4.716
  466WAT     H2 1506   4.776   2.472   4.638
  467WAT      O 1507   4.199   2.276   4.273
  467WAT     H1 1508   4.209   2.366   4.304
  467WAT     H2 1509   4.107   2.271   4.244
  468WAT      O 1510   5.164   2.188   4.420
  468WAT     H1 1511   5.246   2.139   4.425
  468WAT     H2 1512   5.167   2.247   4.496
  469WAT      O 1513   3.963   2.468   4.798
  469WAT     H1 1514   4.031   2.494   4.860
  469WAT     H2 1515   3.932   2.384   4.831
  470WAT      O 1516   4.383   2.572   4.706
  470WAT     H1 1517   4.433   2.622   4.770
  470WAT     H2 1518   4.436   2.495   4.689
  471WAT      O 1519   4.211   2.036   5.133
  471WAT     H1 1520   4.211   2.088   5.053
  471WAT     H2 1521   4.128   1.989   5.131
  472WAT      O 1522   4.850   3.048   4.283
  472WAT     H1 1523   4.788   3.094   4.227
  472WAT     H2 1524   4.901   3.117   4.325
  473WAT      O 1525   4.336   3.000   4.951
  473WAT     H1 1526   4.303   3.063   5.015
  473WAT     H2 1527   4.354   3.053   4.873
  474WAT      O 1528   5.187   2.382   4.698
  474WAT     H1 1529   5.117   2.411   4.756
  474WAT     H2 1530   5.223   2.463   4.662
  475WAT      O 1531   4.179   2.207   4.934
  475WAT     H1 1532   4.213   2.292   4.904
  475WAT     H2 1533   4.085   2.222   4.945
  476WAT      O 1534   4.257   3.197   5.132
  476WAT     H1 1535   4.319   3.265   5.104
  476WAT     H2 1536   4.171   3.238   5.123
  477WAT      O 1537   3.787   3.116   4.020
  477WAT     H1 1538   3.749   3.165   3.947
  477WAT     H2 1539   3.812   3.183   4.083
  478WAT      O 1540   5.349   3.344   4.924
  478WAT     H1 1541   5.281   3.411   4.923
  478WAT     H2 1542   5.403   3.363   4.847
  479WAT      O 1543   4.547   1.956   4.566
  479WAT     H1 1544   4.578   1.901   4.495
  479WAT     H2 1545   4.454   1.970   4.548
  480WAT      O 1546   5.103   3.528   4.795
  480WAT     H1 1547   5.104   3.488   4.709
  480WAT     H2 1548   5.047   3.605   4.785
  481WAT      O 1549   5.232   3.200   4.304
  481WAT     H1 1550   5.221   3.106   4.317
  481WAT     H2 1551   5.232   3.236   4.393
  482WAT      O 1552   5.042   3.018   4.928
  482WAT     H1 1553   5.084   2.997   4.845
  482WAT     H2 1554   5.115   3.044   4.985
  483WAT      O 1555   4.786   2.763   4.240
  483WAT     H1 1556   4.694   2.756   4.263
  483WAT     H2 1557   4.801   2.857   4.228
  484WAT      O 1558   4.785   2.390   3.939
  484WAT     H1 1559   4.691   2.406   3.948
  484WAT     H2 1560   4.817   2.462   3.885
  485WAT      O 1561   5.189   2.919   4.290
  485WAT     H1 1562   5.127   2.885   4.225
  485WAT     H2 1563   5.187   2.855   4.361
  486WAT      O 1564   5.133   2.537   5.032
  486WAT     H1 1565   5.092   2.619   5.057
  486WAT     H2 1566   5.060   2.478   5.013
  487WAT      O 1567   4.347   2.815   4.518
  487WAT     H1 1568   4.306   2.744   4.468
  487WAT     H2 1569   4.355   2.781   4.607
  488WAT      O 1570   4.394   3.184   4.734
  488WAT     H1 1571   4.364   3.124   4.666
  488WAT     H2 1572   4.489   3.188   4.723
  489WAT      O 1573   4.218   2.493   4.896
  489WAT     H1 1574   4.273   2.504   4.819
  489WAT     H2 1575   4.270   2.530   4.968
  490WAT      O 1576   5.202   3.541   5.101
  490WAT     H1 1577   5.155   3.622   5.081
  490WAT     H2 1578   5.134   3.476   5.116
  491WAT      O 1579   4.303   3.158   5.399
  491WAT     H1 1580   4.213   3.180   5.424
  491WAT     H2 1581   4.305   3.170   5.305
  492WAT      O 1582   5.007   2.843   3.991
  492WAT     H1 1583   5.051   2.759   3.976
  492WAT     H2 1584   5.078   2.906   4.000
  493WAT      O 1585   4.185   2.845   5.257
  493WAT     H1 1586   4.172   2.932   5.294
  493WAT     H2 1587   4.097   2.811   5.243
  494WAT      O 1588   4.818   3.337   4.388
  494WAT     H1 1589   4.862   3.411   4.346
  494WAT     H2 1590   4.812   3.361   4.480
  495WAT      O 1591   4.017   2.705   4.268
  495WAT     H1 1592   4.005   2.778   4.207
  495WAT     H2 1593   3.986   2.628   4.220
  496WAT      O 1594   3.781   3.022   4.849
  496WAT     H1 1595   3.788   3.036   4.754
  496WAT     H2 1596   3.842   2.951   4.868
  497WAT      O 1597   3.905   3.192   4.490
  497WAT     H1 1598   3.864   3.206   4.404
  497WAT     H2 1599   3.994   3.164   4.470
  498WAT      O 1600   4.887   3.607   5.181
  498WAT     H1 1601   4.938   3.598   5.261
  498WAT     H2 1602   4.803   3.642   5.210
  499WAT      O 1603   5.084   3.636   4.123
  499WAT     H1 1604   5.069   3.607   4.213
  499WAT     H2 1605   5.068   3.558   4.070
  500WAT      O 1606   4.332   3.613   4.301
  500WAT     H1 1607   4.315   3.522   4.280
  500WAT     H2 1608   4.247   3.649   4.325
  501WAT      O 1609   5.055   3.386   3.979
  501WAT     H1 1610   4.985   3.386   3.913
  501WAT     H2 1611   5.129   3.344   3.936
  502WAT      O 1612   5.011   3.549   4.387
  502WAT     H1 1613   5.057   3.471   4.418
  502WAT     H2 1614   5.045   3.620   4.441
  503WAT      O 1615   3.786   3.126   5.103
  503WAT     H1 1616   3.803   3.079   5.021
  503WAT     H2 1617   3.833   3.075   5.169
  504WAT      O 1618   4.263   2.039   4.606
  504WAT     H1 1619   4.219   2.117   4.573
  504WAT     H2 1620   4.319   2.072   4.677
  505WAT      O 1621   4.692   2.326   5.167
  505WAT     H1 1622   4.646   2.347   5.248
  505WAT     H2 1623   4.652   2.245   5.136
  506WAT      O 1624   5.192   2.448   5.280
  506WAT     H1 1625   5.107   2.418   5.312
  506WAT     H2 1626   5.176   2.472   5.188
  507WAT      O 1627   4.575   2.001   4.094
  507WAT     H1 1628   4.513   2.001   4.167
  507WAT     H2 1629   4.566   1.915   4.055
  508WAT      O 1630   4.467   2.094   4.792
  508WAT     H1 1631   4.497   2.184   4.784
  508WAT     H2 1632   4.522   2.045   4.731
  509WAT      O 1633   4.243   2.552   4.379
  509WAT     H1 1634   4.220   2.530   4.470
  509WAT     H2 1635   4.165   2.595   4.345
  510WAT      O 1636   4.966   2.552   4.239
  510WAT     H1 1637   4.906   2.625   4.221
  510WAT     H2 1638   5.020   2.546   4.161
  511WAT      O 1639   4.826   2.416   4.442
  511WAT     H1 1640   4.866   2.448   4.361
  511WAT     H2 1641   4.862   2.328   4.454
  512WAT      O 1642   4.000   2.283   5.261
  512WAT     H1 1643   3.960   2.367   5.282
  512WAT     H2 1644   3.931   2.219   5.280
  513WAT      O 1645   3.730   2.075   4.664
  513WAT     H1 1646   3.701   2.132   4.736
  513WAT     H2 1647   3.804   2.027   4.701
  514WAT      O 1648   3.749   2.469   3.785
  514WAT     H1 1649   3.740   2.563   3.800
  514WAT     H2 1650   3.713   2.455   3.698
  515WAT      O 1651   4.885   2.675   4.852
  515WAT     H1 1652   4.812   2.726   4.886
  515WAT     H2 1653   4.845   2.593   4.821
  516WAT      O 1654   4.529   2.342   4.692
  516WAT     H1 1655   4.529   2.298   4.607
  516WAT     H2 1656   4.618   2.375   4.703
  517WAT      O 1657   4.114   2.331   4.588
  517WAT     H1 1658   4.080   2.378   4.664
  517WAT     H2 1659   4.037   2.285   4.552
  518WAT      O 1660   4.535   2.443   3.991
  518WAT     H1 1661   4.547   2.438   4.086
  518WAT     H2 1662   4.496   2.529   3.976
  519WAT      O 1663   4.931   2.220   4.793
  519WAT     H1 1664   4.933   2.265   4.877
  519WAT     H2 1665   4.906   2.130   4.814
  520WAT      O 1666   4.436   2.674   3.931
  520WAT     H1 1667   4.379   2.629   3.868
  520WAT     H2 1668   4.507   2.709   3.878
  521WAT      O 1669   3.944   3.064   5.319
  521WAT     H1 1670   3.905   3.000   5.379
  521WAT     H2 1671   3.975   3.134   5.376
  522WAT      O 1672   4.559   2.748   4.867
  522WAT     H1 1673   4.595   2.701   4.941
  522WAT     H2 1674   4.540   2.836   4.901
  523WAT      O 1675   3.845   2.223   4.480
  523WAT     H1 1676   3.817   2.186   4.563
  523WAT     H2 1677   3.839   2.150   4.418
  524WAT      O 1678   4.338   2.653   5.099
  524WAT     H1 1679   4.307   2.740   5.121
  524WAT     H2 1680   4.433   2.659   5.102
  525WAT      O 1681   4.190   3.073   4.158
  525WAT     H1 1682   4.113   3.019   4.142
  525WAT     H2 1683   4.263   3.021   4.124
  526WAT      O 1684   5.266   2.973   4.738
  526WAT     H1 1685   5.338   3.022   4.698
  526WAT     H2 1686   5.246   2.905   4.673
  527WAT      O 1687   4.812   2.112   4.152
  527WAT     H1 1688   4.731   2.062   4.144
  527WAT     H2 1689   4.793   2.196   4.110
  528WAT      O 1690   4.805   2.980   5.326
  528WAT     H1 1691   4.798   2.888   5.301
  528WAT     H2 1692   4.742   2.990   5.398
  529WAT      O 1693   5.084   2.549   3.981
  529WAT     H1 1694   5.173   2.581   3.964
  529WAT     H2 1695   5.081   2.462   3.942
  530WAT      O 1696   4.195   3.040   4.522
  530WAT     H1 1697   4.247   2.960   4.517
  530WAT     H2 1698   4.150   3.034   4.606
  531WAT      O 1699   4.684   3.167   4.049
  531WAT     H1 1700   4.718   3.241   4.000
  531WAT     H2 1701   4.601   3.198   4.086
  532WAT      O 1702   3.943   2.737   5.213
  532WAT     H1 1703   3.907   2.803   5.272
  532WAT     H2 1704   3.914   2.653   5.250
  533WAT      O 1705   4.798   3.262   5.301
  533WAT     H1 1706   4.799   3.169   5.279
  533WAT     H2 1707   4.727   3.271   5.365
  534WAT      O 1708   5.311   2.680   3.928
  534WAT     H1 1709   5.303   2.724   3.843
  534WAT     H2 1710   5.383   2.726   3.972
  535WAT      O 1711   4.972   3.099   4.586
  535WAT     H1 1712   5.007   3.039   4.520
  535WAT     H2 1713   4.883   3.066   4.603
  536WAT      O 1714   4.580   3.175   4.326
  536WAT     H1 1715   4.649   3.229   4.365
  536WAT     H2 1716   4.502   3.229   4.330
  537WAT      O 1717   3.794   2.736   3.876
  537WAT     H1 1718   3.881   2.765   3.904
  537WAT     H2 1719   3.745   2.818   3.864
  538WAT      O 1720   4.511   2.875   4.288
  538WAT     H1 1721   4.556   2.956   4.310
  538WAT     H2 1722   4.476   2.843   4.371
  539WAT      O 1723   4.741   3.426   5.011
  539WAT     H1 1724   4.805   3.447   5.078
  539WAT     H2 1725   4.777   3.350   4.965
  540WAT      O 1726   4.101   1.910   4.335
  540WAT     H1 1727   4.088   1.909   4.430
  540WAT     H2 1728   4.018   1.943   4.300
  541WAT      O 1729   4.868   3.227   4.882
  541WAT     H1 1730   4.933   3.157   4.894
  541WAT     H2 1731   4.921   3.305   4.864
  542WAT      O 1732   5.253   3.255   3.855
  542WAT     H1 1733   5.230   3.183   3.914
  542WAT     H2 1734   5.214   3.230   3.771
  543WAT      O 1735   5.046   3.307   5.203
  543WAT     H1 1736   5.079   3.365   5.271
  543WAT     H2 1737   4.954   3.293   5.226
  544WAT      O 1738   3.831   3.658   3.932
  544WAT     H1 1739   3.867   3.718   3.867
  544WAT     H2 1740   3.817   3.712   4.010
  545WAT      O 1741   3.801   2.085   5.281
  545WAT     H1 1742   3.729   2.105   5.342
  545WAT     H2 1743   3.843   2.008   5.318
  546WAT      O 1744   5.211   3.047   4.021
  546WAT     H1 1745   5.182   3.093   4.100
  546WAT     H2 1746   5.291   3.001   4.048
  547WAT      O 1747   3.829   3.484   5.380
  547WAT     H1 1748   3.840   3.390   5.366
  547WAT     H2 1749   3.764   3.511   5.315
  548WAT      O 1750   4.433   3.396   4.014
  548WAT     H1 1751   4.432   3.469   3.952
  548WAT     H2 1752   4.341   3.371   4.023
  549WAT      O 1753   3.993   2.918   4.088
  549WAT     H1 1754   3.932   2.992   4.089
  549WAT     H2 1755   4.040   2.927   4.006
  550WAT      O 1756   4.950   2.335   5.056
  550WAT     H1 1757   4.987   2.253   5.089
  550WAT     H2 1758   4.864   2.341   5.098
  551WAT      O 1759   5.287   2.230   4.137
  551WAT     H1 1760   5.224   2.241   4.066
  551WAT     H2 1761   5.237   2.252   4.216
  552WAT      O 1762   4.731   3.402   3.880
  552WAT     H1 1763   4.741   3.382   3.787
  552WAT     H2 1764   4.641   3.377   3.901
  553WAT      O 1765   4.484   2.458   4.279
  553WAT     H1 1766   4.413   2.505   4.323
  553WAT     H2 1767   4.512   2.392   4.342
  554WAT      O 1768   4.646   2.600   5.078
  554WAT     H1 1769   4.696   2.648   5.145
  554WAT     H2 1770   4.660   2.508   5.099
  555WAT      O 1771   4.887   2.131   4.422
  555WAT     H1 1772   4.874   2.133   4.328
  555WAT     H2 1773   4.982   2.135   4.434
  556WAT      O 1774   4.596   3.654   4.350
  556WAT     H1 1775   4.621   3.650   4.258
  556WAT     H2 1776   4.501   3.642   4.349
  557WAT      O 1777   4.304   2.289   4.016
  557WAT     H1 1778   4.389   2.333   4.009
  557WAT     H2 1779   4.267   2.320   4.099
  558WAT      O 1780   5.196   2.746   4.507
  558WAT     H1 1781   5.102   2.748   4.525
  558WAT     H2 1782   5.227   2.667   4.552
  559WAT      O 1783   4.194   2.914   3.863
  559WAT     H1 1784   4.271   2.903   3.920
  559WAT     H2 1785   4.202   2.845   3.798
  560WAT      O 1786   4.063   2.658   3.932
  560WAT     H1 1787   4.071   2.563   3.943
  560WAT     H2 1788   4.153   2.691   3.942
  561WAT      O 1789   4.143   3.673   4.642
  561WAT     H1 1790   4.217   3.618   4.669
  561WAT     H2 1791   4.182   3.759   4.628
  562WAT      O 1792   3.832   3.279   4.229
  562WAT     H1 1793   3.739   3.303   4.229
  562WAT     H2 1794   3.879   3.362   4.217
  563WAT      O 1795   4.455   3.590   3.824
  563WAT     H1 1796   4.534   3.619   3.779
  563WAT     H2 1797   4.403   3.547   3.756
  564WAT      O 1798   5.360   3.513   3.967
  564WAT     H1 1799   5.331   3.471   3.885
  564WAT     H2 1800   5.340   3.605   3.955
  565WAT      O 1801   4.506   3.112   3.811
  565WAT     H1 1802   4.496   3.050   3.883
  565WAT     H2 1803   4.490   3.060   3.732
  566WAT      O 1804   4.521   2.980   5.409
  566WAT     H1 1805   4.445   3.037   5.400
  566WAT     H2 1806   4.540   2.951   5.319
  567WAT      O 1807   4.830   3.018   3.871
  567WAT     H1 1808   4.775   3.063   3.936
  567WAT     H2 1809   4.893   2.968   3.924
  568WAT      O 1810   4.397   2.914   4.061
  568WAT     H1 1811   4.439   2.897   4.145
  568WAT     H2 1812   4.410   2.833   4.011
  569WAT      O 1813   4.213   2.512   5.342
  569WAT     H1 1814   4.160   2.463   5.279
  569WAT     H2 1815   4.280   2.555   5.288
  570WAT      O 1816   4.648   2.816   3.786
  570WAT     H1 1817   4.700   2.745   3.749
  570WAT     H2 1818   4.713   2.880   3.816
  571WAT      O 1819   5.103   2.959   5.318
  571WAT     H1 1820   5.145   2.974   5.403
  571WAT     H2 1821   5.010   2.971   5.334
  572WAT      O 1822   4.262   2.209   5.349
  572WAT     H1 1823   4.253   2.147   5.277
  572WAT     H2 1824   4.204   2.281   5.327
  573WAT      O 1825   4.539   2.064   5.053
  573WAT     H1 1826   4.494   2.067   4.968
  573WAT     H2 1827   4.475   2.024   5.112
  574WAT      O 1828   4.579   2.954   5.115
  574WAT     H1 1829   4.621   3.038   5.098
  574WAT     H2 1830   4.487   2.968   5.092
  575WAT      O 1831   4.813   2.727   5.253
  575WAT     H1 1832   4.825   2.667   5.327
  575WAT     H2 1833   4.899   2.731   5.211
  576WAT      O 1834   5.047   2.782   5.111
  576WAT     H1 1835   4.994   2.835   5.051
  576WAT     H2 1836   5.081   2.846   5.174
  577WAT      O 1837   4.287   2.521   3.755
  577WAT     H1 1838   4.267   2.435   3.792
  577WAT     H2 1839   4.270   2.513   3.662
  578WAT      O 1840   4.364   3.584   5.226
  578WAT     H1 1841   4.311   3.657   5.195
  578WAT     H2 1842   4.390   3.537   5.147
  579WAT      O 1843   5.035   2.002   4.008
  579WAT     H1 1844   5.063   1.918   4.044
  579WAT     H2 1845   4.957   2.026   4.060
  580WAT      O 1846   4.166   2.231   3.754
  580WAT     H1 1847   4.197   2.232   3.663
  580WAT     H2 1848   4.240   2.196   3.804
  581WAT      O 1849   4.650   3.708   5.252
  581WAT     H1 1850   4.643   3.798   5.283
  581WAT     H2 1851   4.560   3.676   5.250
  582WAT      O 1852   4.488   2.126   3.853
  582WAT     H1 1853   4.454   2.058   3.795
  582WAT     H2 1854   4.508   2.080   3.934
  583WAT      O 1855   4.705   3.624   4.015
  583WAT     H1 1856   4.794   3.658   4.017
  583WAT     H2 1857   4.708   3.552   3.952
  584WAT      O 1858   4.069   3.162   3.837
  584WAT     H1 1859   4.113   3.216   3.903
  584WAT     H2 1860   4.117   3.079   3.838
  585WAT      O 1861   3.790   3.441   4.583
  585WAT     H1 1862   3.823   3.354   4.559
  585WAT     H2 1863   3.833   3.461   4.666
  586WAT      O 1864   4.250   3.274   4.349
  586WAT     H1 1865   4.220   3.261   4.439
  586WAT     H2 1866   4.239   3.188   4.308
  587WAT      O 1867   3.839   3.527   4.856
  587WAT     H1 1868   3.795   3.545   4.940
  587WAT     H2 1869   3.896   3.603   4.842
  588WAT      O 1870   3.822   2.779   4.492
  588WAT     H1 1871   3.757   2.752   4.428
  588WAT     H2 1872   3.906   2.768   4.447
  589WAT      O 1873   5.271   3.150   5.095
  589WAT     H1 1874   5.190   3.193   5.121
  589WAT     H2 1875   5.312   3.211   5.034
  590WAT      O 1876   5.117   2.258   3.915
  590WAT     H1 1877   5.159   2.239   3.831
  590WAT     H2 1878   5.087   2.173   3.946
  591WAT      O 1879   3.926   2.817   4.946
  591WAT     H1 1880   3.963   2.808   5.034
  591WAT     H2 1881   3.869   2.741   4.936
  592WAT      O 1882   3.881   2.508   5.337
  592WAT     H1 1883   3.792   2.505   5.371
  592WAT     H2 1884   3.935   2.528   5.413
  593WAT      O 1885   3.744   2.500   4.087
  593WAT     H1 1886   3.653   2.526   4.069
  593WAT     H2 1887   3.792   2.527   4.009
  594WAT      O 1888   3.998   2.405   3.878
  594WAT     H1 1889   4.069   2.363   3.829
  594WAT     H2 1890   3.926   2.412   3.814
  595WAT      O 1891   3.963   2.011   3.782
  595WAT     H1 1892   4.035   2.065   3.813
  595WAT     H2 1893   3.990   1.983   3.694
  596WAT      O 1894   5.344   2.498   4.208
  596WAT     H1 1895   5.393   2.474   4.287
  596WAT     H2 1896   5.324   2.414   4.167
  597WAT      O 1897   3.932   1.936   4.772
  597WAT     H1 1898   3.996   1.881   4.728
  597WAT     H2 1899   3.974   1.961   4.854
  598WAT      O 1900   5.321   1.955   5.108
  598WAT     H1 1901   5.385   2.016   5.144
  598WAT     H2 1902   5.336   1.959   5.013
  599WAT      O 1903   5.277   3.625   4.448
  599WAT     H1 1904   5.337   3.593   4.380
  599WAT     H2 1905   5.303   3.578   4.527
  600WAT      O 1906   3.907   1.951   5.046
  600WAT     H1 1907   3.872   1.997   5.123
  600WAT     H2 1908   3.874   1.862   5.054
  601WAT      O 1909   4.438   3.424   5.023
  601WAT     H1 1910   4.414   3.451   4.934
  601WAT     H2 1911   4.532   3.441   5.028
  602WAT      O 1912   4.922   2.036   5.362
  602WAT     H1 1913   4.983   2.068   5.296
  602WAT     H2 1914   4.977   1.988   5.424
  603WAT      O 1915   3.974   1.904   5.374
  603WAT     H1 1916   4.029   1.886   5.297
  603WAT     H2 1917   3.981   1.825   5.427
  604WAT      O 1918   4.052   3.563   5.175
  604WAT     H1 1919   3.992   3.550   5.248
  604WAT     H2 1920   4.051   3.479   5.128
  605WAT      O 1921   4.996   1.892   4.995
  605WAT     H1 1922   4.909   1.926   4.975
  605WAT     H2 1923   4.985   1.845   5.077
  606WAT      O 1924   5.087   2.113   5.133
  606WAT     H1 1925   5.054   2.032   5.095
  606WAT     H2 1926   5.182   2.109   5.121
  607WAT      O 1927   5.332   3.690   4.831
  607WAT     H1 1928   5.286   3.765   4.793
  607WAT     H2 1929   5.269   3.618   4.825
  608WAT      O 1930   4.015   3.300   5.070
  608WAT     H1 1931   3.942   3.238   5.063
  608WAT     H2 1932   4.021   3.339   4.983
  609WAT      O 1933   4.375   3.521   4.748
  609WAT     H1 1934   4.427   3.460   4.696
  609WAT     H2 1935   4.440   3.571   4.797
  610WAT      O 1936   4.649   3.610   4.831
  610WAT     H1 1937   4.678   3.585   4.743
  610WAT     H2 1938   4.700   3.555   4.890
  611WAT      O 1939   4.771   1.984   4.889
  611WAT     H1 1940   4.693   2.031   4.917
  611WAT     H2 1941   4.741   1.894   4.878
  612WAT      O 1942   5.226   2.054   4.693
  612WAT     H1 1943   5.270   2.049   4.609
  612WAT     H2 1944   5.199   2.146   4.700
  613WAT      O 1945   3.843   3.631   4.391
  613WAT     H1 1946   3.826   3.568   4.460
  613WAT     H2 1947   3.756   3.652   4.356
  614WAT      O 1948   3.905   2.015   4.141
  614WAT     H1 1949   3.981   2.026   4.084
  614WAT     H2 1950   3.859   2.098   4.136
  615WAT      O 1951   4.559   2.226   4.440
  615WAT     H1 1952   4.478   2.188   4.406
  615WAT     H2 1953   4.610   2.150   4.470
  616WAT      O 1954   5.010   1.892   4.564
  616WAT     H1 1955   5.070   1.950   4.611
  616WAT     H2 1956   4.936   1.949   4.542
  617WAT      O 1957   5.324   1.933   4.091
  617WAT     H1 1958   5.343   2.022   4.118
  617WAT     H2 1959   5.245   1.909   4.141
  618WAT      O 1960   4.004   3.501   4.135
  618WAT     H1 1961   3.951   3.539   4.065
  618WAT     H2 1962   3.996   3.563   4.207
  619WAT      O 1963   4.142   2.067   3.995
  619WAT     H1 1964   4.195   1.988   3.982
  619WAT     H2 1965   4.206   2.135   4.018
  620WAT      O 1966   4.362   2.041   4.300
  620WAT     H1 1967   4.299   1.971   4.317
  620WAT     H2 1968   4.308   2.117   4.279
  621WAT      O 1969   4.264   3.695   4.023
  621WAT     H1 1970   4.337   3.667   3.968
  621WAT     H2 1971   4.289   3.672   4.112
  622WAT      O 1972   4.180   3.307   4.023
  622WAT     H1 1973   4.117   3.354   4.078
  622WAT     H2 1974   4.191   3.223   4.067
  623WAT      O 1975   4.925   2.712   2.638
  623WAT     H1 1976   4.917   2.621   2.611
  623WAT     H2 1977   4.884   2.762   2.567
  624WAT      O 1978   4.738   2.890   2.826
  624WAT     H1 1979   4.661   2.842   2.855
  624WAT     H2 1980   4.803   2.822   2.809
  625WAT      O 1981   5.140   3.331   2.704
  625WAT     H1 1982   5.094   3.253   2.737
  625WAT     H2 1983   5.222   3.333   2.755
  626WAT      O 1984   3.981   2.417   2.292
  626WAT     H1 1985   3.892   2.451   2.282
  626WAT     H2 1986   4.009   2.397   2.203
  627WAT      O 1987   4.763   3.559   2.666
  627WAT     H1 1988   4.701   3.605   2.609
  627WAT     H2 1989   4.849   3.575   2.626
  628WAT      O 1990   4.682   3.158   2.827
  628WAT     H1 1991   4.676   3.063   2.811
  628WAT     H2 1992   4.759   3.167   2.884
  629WAT      O 1993   3.902   2.218   3.059
  629WAT     H1 1994   3.884   2.128   3.087
  629WAT     H2 1995   3.861   2.273   3.127
  630WAT      O 1996   4.785   2.438   2.850
  630WAT     H1 1997   4.823   2.351   2.838
  630WAT     H2 1998   4.776   2.472   2.760
  631WAT      O 1999   4.199   2.276   2.396
  631WAT     H1 2000   4.209   2.366   2.426
  631WAT     H2 2001   4.107   2.271   2.367
  632WAT      O 2002   5.164   2.188   2.543
  632WAT     H1 2003   5.246   2.139   2.547
  632WAT     H2 2004   5.167   2.247   2.618
  633WAT      O 2005   3.963   2.468   2.920
  633WAT     H1 2006   4.031   2.494   2.982
  633WAT     H2 2007   3.932   2.384   2.954
  634WAT      O 2008   4.383   2.572   2.829
  634WAT     H1 2009   4.433   2.622   2.893
  634WAT     H2 2010   4.436   2.495   2.811
  635WAT      O 2011   4.211   2.036   3.256
  635WAT     H1 2012   4.211   2.088   3.175
  635WAT     H2 2013   4.128   1.989   3.253
  636WAT      O 2014   4.850   3.048   2.406
  636WAT     H1 2015   4.788   3.094   2.349
  636WAT     H2 2016   4.901   3.117   2.447
  637WAT      O 2017   4.336   3.000   3.073
  637WAT     H1 2018   4.303   3.063   3.138
  637WAT     H2 2019   4.354   3.053   2.995
  638WAT      O 2020   5.187   2.382   2.820
  638WAT     H1 2021   5.117   2.411   2.878
  638WAT     H2 2022   5.223   2.463   2.784
  639WAT      O 2023   4.179   2.207   3.056
  639WAT     H1 2024   4.213   2.292   3.027
  639WAT     H2 2025   4.085   2.222   3.068
  640WAT      O 2026   4.257   3.197   3.255
  640WAT     H1 2027   4.319   3.265   3.227
  640WAT     H2 2028   4.171   3.238   3.246
  641WAT      O 2029   3.787   3.116   2.143
  641WAT     H1 2030   3.749   3.165   2.070
  641WAT     H2 2031   3.812   3.183   2.206
  642WAT      O 2032   5.349   3.344   3.046
  642WAT     H1 2033   5.281   3.411   3.046
  642WAT     H2 2034   5.403   3.363   2.970
  643WAT      O 2035   4.547   1.956   2.689
  643WAT     H1 2036   4.578   1.901   2.617
  643WAT     H2 2037   4.454   1.970   2.671
  644WAT      O 2038   5.103   3.528   2.918
  644WAT     H1 2039   5.104   3.488   2.831
  644WAT     H2 2040   5.047   3.605   2.907
  645WAT      O 2041   5.232   3.200   2.427
  645WAT     H1 2042   5.221   3.106   2.439
  645WAT     H2 2043   5.232   3.236   2.515
  646WAT      O 2044   5.042   3.018   3.051
  646WAT     H1 2045   5.084   2.997   2.967
  646WAT     H2 2046   5.115   3.044   3.108
  647WAT      O 2047   4.786   2.763   2.362
  647WAT     H1 2048   4.694   2.756   2.385
  647WAT     H2 2049   4.801   2.857   2.351
  648WAT      O 2050   4.785   2.390   2.062
  648WAT     H1 2051   4.691   2.406   2.071
  648WAT     H2 2052   4.817   2.462   2.007
  649WAT      O 2053   5.189   2.919   2.413
  649WAT     H1 2054   5.127   2.885   2.348
  649WAT     H2 2055   5.187   2.855   2.484
  650WAT      O 2056   5.133   2.537   3.154
  650WAT     H1 2057   5.092   2.619   3.180
  650WAT     H2 2058   5.060   2.478   3.135
  651WAT      O 2059   4.347   2.815   2.641
  651WAT     H1 2060   4.306   2.744   2.591
  651WAT     H2 2061   4.355   2.781   2.729
  652WAT      O 2062   4.394   3.184   2.857
  652WAT     H1 2063   4.364   3.124   2.789
  652WAT     H2 2064   4.489   3.188   2.846
  653WAT      O 2065   4.218   2.493   3.019
  653WAT     H1 2066   4.273   2.504   2.941
  653WAT     H2 2067   4.270   2.530   3.090
  654WAT      O 2068   5.202   3.541   3.223
  654WAT     H1 2069   5.155   3.622   3.204
  654WAT     H2 2070   5.134   3.476   3.238
  655WAT      O 2071   4.303   3.158   3.522
  655WAT     H1 2072   4.213   3.180   3.547
  655WAT     H2 2073   4.305   3.170   3.427
  656WAT      O 2074   5.007   2.843   2.113
  656WAT     H1 2075   5.051   2.759   2.099
  656WAT     H2 2076   5.078   2.906   2.122
  657WAT      O 2077   4.185   2.845   3.380
  657WAT     H1 2078   4.172   2.932   3.417
  657WAT     H2 2079   4.097   2.811   3.365
  658WAT      O 2080   4.818   3.337   2.510
  658WAT     H1 2081   4.862   3.411   2.469
  658WAT     H2 2082   4.812   3.361   2.603
  659WAT      O 2083   4.365   3.439   3.600
  659WAT     H1 2084   4.362   3.480   3.514
  659WAT     H2 2085   4.349   3.346   3.584
  660WAT      O 2086   4.017   2.705   2.391
  660WAT     H1 2087   4.005   2.778   2.329
  660WAT     H2 2088   3.986   2.628   2.343
  661WAT      O 2089   4.887   3.607   3.303
  661WAT     H1 2090   4.938   3.598   3.383
  661WAT     H2 2091   4.803   3.642   3.332
  662WAT      O 2092   5.084   3.636   2.246
  662WAT     H1 2093   5.069   3.607   2.336
  662WAT     H2 2094   5.068   3.558   2.192
  663WAT      O 2095   4.332   3.613   2.424
  663WAT     H1 2096   4.315   3.522   2.402
  663WAT     H2 2097   4.247   3.649   2.448
  664WAT      O 2098   5.055   3.386   2.102
  664WAT     H1 2099   4.985   3.386   2.036
  664WAT     H2 2100   5.129   3.344   2.059
  665WAT      O 2101   5.011   3.549   2.509
  665WAT     H1 2102   5.057   3.471   2.541
  665WAT     H2 2103   5.045   3.620   2.564
  666WAT      O 2104   4.263   2.039   2.729
  666WAT     H1 2105   4.219   2.117   2.696
  666WAT     H2 2106   4.319   2.072   2.800
  667WAT      O 2107   4.692   2.326   3.289
  667WAT     H1 2108   4.646   2.347   3.370
  667WAT     H2 2109   4.652   2.245   3.259
  668WAT      O 2110   5.192   2.448   3.402
  668WAT     H1 2111   5.107   2.418   3.434
  668WAT     H2 2112   5.176   2.472   3.311
  669WAT      O 2113   4.902   2.598   3.612
  669WAT     H1 2114   4.934   2.515   3.578
  669WAT     H2 2115   4.981   2.650   3.627
  670WAT      O 2116   4.575   2.001   2.217
  670WAT     H1 2117   4.513   2.001   2.289
  670WAT     H2 2118   4.566   1.915   2.177
  671WAT      O 2119   4.467   2.094   2.915
  671WAT     H1 2120   4.497   2.184   2.907
  671WAT     H2 2121   4.522   2.045   2.853
  672WAT      O 2122   4.243   2.552   2.502
  672WAT     H1 2123   4.220   2.530   2.592
  672WAT     H2 2124   4.165   2.595   2.467
  673WAT      O 2125   4.966   2.552   2.362
  673WAT     H1 2126   4.906   2.625   2.343
  673WAT     H2 2127   5.020   2.546   2.283
  674WAT      O 2128   4.487   2.641   3.568
  674WAT     H1 2129   4.477   2.547   3.553
  674WAT     H2 2130   4.571   2.664   3.529
  675WAT      O 2131   4.826   2.416   2.565
  675WAT     H1 2132   4.866   2.448   2.483
  675WAT     H2 2133   4.862   2.328   2.576
  676WAT      O 2134   4.000   2.283   3.384
  676WAT     H1 2135   3.960   2.367   3.404
  676WAT     H2 2136   3.931   2.219   3.403
  677WAT      O 2137   4.657   2.291   3.691
  677WAT     H1 2138   4.588   2.272   3.754
  677WAT     H2 2139   4.731   2.319   3.744
  678WAT      O 2140   3.730   2.075   2.787
  678WAT     H1 2141   3.701   2.132   2.858
  678WAT     H2 2142   3.804   2.027   2.823
  679WAT      O 2143   3.749   2.469   1.908
  679WAT     H1 2144   3.740   2.563   1.922
  679WAT     H2 2145   3.713   2.455   1.820
  680WAT      O 2146   4.885   2.675   2.974
  680WAT     H1 2147   4.812   2.726   3.009
  680WAT     H2 2148   4.845   2.593   2.944
  681WAT      O 2149   4.529   2.342   2.815
  681WAT     H1 2150   4.529   2.298   2.730
  681WAT     H2 2151   4.618   2.375   2.825
  682WAT      O 2152   4.114   2.331   2.711
  682WAT     H1 2153   4.080   2.378   2.786
  682WAT     H2 2154   4.037   2.285   2.675
  683WAT      O 2155   4.535   2.443   2.114
  683WAT     H1 2156   4.547   2.438   2.209
  683WAT     H2 2157   4.496   2.529   2.098
  684WAT      O 2158   4.931   2.220   2.915
  684WAT     H1 2159   4.933   2.265   3.000
  684WAT     H2 2160   4.906   2.130   2.937
  685WAT      O 2161   4.436   2.674   2.054
  685WAT     H1 2162   4.379   2.629   1.991
  685WAT     H2 2163   4.507   2.709   2.000
  686WAT      O 2164   5.274   1.962   3.499
  686WAT     H1 2165   5.306   1.888   3.552
  686WAT     H2 2166   5.277   1.930   3.409
  687WAT      O 2167   4.559   2.748   2.989
  687WAT     H1 2168   4.595   2.701   3.064
  687WAT     H2 2169   4.540   2.836   3.023
  688WAT      O 2170   3.845   2.223   2.602
  688WAT     H1 2171   3.817   2.186   2.686
  688WAT     H2 2172   3.839   2.150   2.541
  689WAT      O 2173   4.338   2.653   3.221
  689WAT     H1 2174   4.307   2.740   3.244
  689WAT     H2 2175   4.433   2.659   3.225
  690WAT      O 2176   4.190   3.073   2.281
  690WAT     H1 2177   4.113   3.019   2.265
  690WAT     H2 2178   4.263   3.021   2.247
  691WAT      O 2179   5.266   2.973   2.860
  691WAT     H1 2180   5.338   3.022   2.821
  691WAT     H2 2181   5.246   2.905   2.796
  692WAT      O 2182   4.812   2.112   2.274
  692WAT     H1 2183   4.731   2.062   2.267
  692WAT     H2 2184   4.793   2.196   2.233
  693WAT      O 2185   4.805   2.980   3.449
  693WAT     H1 2186   4.798   2.888   3.423
  693WAT     H2 2187   4.742   2.990   3.520
  694WAT      O 2188   5.084   2.549   2.104
  694WAT     H1 2189   5.173   2.581   2.087
  694WAT     H2 2190   5.081   2.462   2.065
  695WAT      O 2191   4.684   3.167   2.172
  695WAT     H1 2192   4.718   3.241   2.122
  695WAT     H2 2193   4.601   3.198   2.208
  696WAT      O 2194   4.263   2.782   3.624
  696WAT     H1 2195   4.233   2.797   3.535
  696WAT     H2 2196   4.341   2.726   3.615
  697WAT      O 2197   4.798   3.262   3.424
  697WAT     H1 2198   4.799   3.169   3.402
  697WAT     H2 2199   4.727   3.271   3.488
  698WAT      O 2200   5.311   2.680   2.051
  698WAT     H1 2201   5.303   2.724   1.966
  698WAT     H2 2202   5.383   2.726   2.094
  699WAT      O 2203   4.972   3.099   2.708
  699WAT     H1 2204   5.007   3.039   2.642
  699WAT     H2 2205   4.883   3.066   2.725
  700WAT      O 2206   4.580   3.175   2.449
  700WAT     H1 2207   4.649   3.229   2.487
  700WAT     H2 2208   4.502   3.229   2.453
  701WAT      O 2209   3.794   2.736   1.998
  701WAT     H1 2210   3.881   2.765   2.027
  701WAT     H2 2211   3.745   2.818   1.987
  702WAT      O 2212   4.511   2.875   2.410
  702WAT     H1 2213   4.556   2.956   2.433
  702WAT     H2 2214   4.476   2.843   2.493
  703WAT      O 2215   4.741   3.426   3.133
  703WAT     H1 2216   4.805   3.447   3.201
  703WAT     H2 2217   4.777   3.350   3.088
  704WAT      O 2218   4.101   1.910   2.458
  704WAT     H1 2219   4.088   1.909   2.552
  704WAT     H2 2220   4.018   1.943   2.422
  705WAT      O 2221   4.868   3.227   3.005
  705WAT     H1 2222   4.933   3.157   3.016
  705WAT     H2 2223   4.921   3.305   2.987
  706WAT      O 2224   5.253   3.255   1.977
  706WAT     H1 2225   5.230   3.183   2.037
  706WAT     H2 2226   5.214   3.230   1.894
  707WAT      O 2227   5.046   3.307   3.325
  707WAT     H1 2228   5.079   3.365   3.393
  707WAT     H2 2229   4.954   3.293   3.348
  708WAT      O 2230   3.831   3.658   2.055
  708WAT     H1 2231   3.867   3.718   1.989
  708WAT     H2 2232   3.817   3.712   2.132
  709WAT      O 2233   3.801   2.085   3.404
  709WAT     H1 2234   3.729   2.105   3.464
  709WAT     H2 2235   3.843   2.008   3.441
  710WAT      O 2236   5.211   3.047   2.144
  710WAT     H1 2237   5.182   3.093   2.222
  710WAT     H2 2238   5.291   3.001   2.170
  711WAT      O 2239   3.829   3.484   3.502
  711WAT     H1 2240   3.840   3.390   3.488
  711WAT     H2 2241   3.764   3.511   3.437
  712WAT      O 2242   4.629   3.311   3.642
  712WAT     H1 2243   4.597   3.240   3.697
  712WAT     H2 2244   4.561   3.379   3.650
  713WAT      O 2245   4.433   3.396   2.137
  713WAT     H1 2246   4.432   3.469   2.075
  713WAT     H2 2247   4.341   3.371   2.146
  714WAT      O 2248   3.993   2.918   2.211
  714WAT     H1 2249   3.932   2.992   2.212
  714WAT     H2 2250   4.040   2.927   2.128
  715WAT      O 2251   4.950   2.335   3.179
  715WAT     H1 2252   4.987   2.253   3.211
  715WAT     H2 2253   4.864   2.341   3.220
  716WAT      O 2254   5.287   2.230   2.259
  716WAT     H1 2255   5.224   2.241   2.188
  716WAT     H2 2256   5.237   2.252   2.338
  717WAT      O 2257   4.731   3.402   2.003
  717WAT     H1 2258   4.741   3.382   1.910
  717WAT     H2 2259   4.641   3.377   2.023
  718WAT      O 2260   4.484   2.458   2.401
  718WAT     H1 2261   4.413   2.505   2.445
  718WAT     H2 2262   4.512   2.392   2.465
  719WAT      O 2263   4.646   2.600   3.201
  719WAT     H1 2264   4.696   2.648   3.268
  719WAT     H2 2265   4.660   2.508   3.222
  720WAT      O 2266   4.887   2.131   2.545
  720WAT     H1 2267   4.874   2.133   2.450
  720WAT     H2 2268   4.982   2.135   2.557
  721WAT      O 2269   4.596   3.654   2.472
  721WAT     H1 2270   4.621   3.650   2.380
  721WAT     H2 2271   4.501   3.642   2.472
  722WAT      O 2272   4.304   2.289   2.139
  722WAT     H1 2273   4.389   2.333   2.132
  722WAT     H2 2274   4.267   2.320   2.221
  723WAT      O 2275   5.196   2.746   2.630
  723WAT     H1 2276   5.102   2.748   2.647
  723WAT     H2 2277   5.227   2.667   2.674
  724WAT      O 2278   4.194   2.914   1.986
  724WAT     H1 2279   4.271   2.903   2.042
  724WAT     H2 2280   4.202   2.845   1.921
  725WAT      O 2281   4.063   2.658   2.054
  725WAT     H1 2282   4.071   2.563   2.065
  725WAT     H2 2283   4.153   2.691   2.065
  726WAT      O 2284   4.143   3.673   2.765
  726WAT     H1 2285   4.217   3.618   2.792
  726WAT     H2 2286   4.182   3.759   2.751
  727WAT      O 2287   3.832   3.279   2.352
  727WAT     H1 2288   3.739   3.303   2.351
  727WAT     H2 2289   3.879   3.362   2.340
  728WAT      O 2290   4.044   3.591   3.683
  728WAT     H1 2291   4.124   3.623   3.725
  728WAT     H2 2292   3.993   3.555   3.756
  729WAT      O 2293   4.455   3.590   1.947
  729WAT     H1 2294   4.534   3.619   1.902
  729WAT     H2 2295   4.403   3.547   1.879
  730WAT      O 2296   4.928   3.202   3.678
  730WAT     H1 2297   4.867   3.204   3.604
  730WAT     H2 2298   4.897   3.129   3.732
  731WAT      O 2299   5.071   3.575   3.539
  731WAT     H1 2300   5.166   3.566   3.534
  731WAT     H2 2301   5.056   3.641   3.607
  732WAT      O 2302   5.360   3.513   2.089
  732WAT     H1 2303   5.331   3.471   2.008
  732WAT     H2 2304   5.340   3.605   2.077
  733WAT      O 2305   4.506   3.112   1.933
  733WAT     H1 2306   4.496   3.050   2.006
  733WAT     H2 2307   4.490   3.060   1.855
  734WAT      O 2308   4.521   2.980   3.531
  734WAT     H1 2309   4.445   3.037   3.523
  734WAT     H2 2310   4.540   2.951   3.442
  735WAT      O 2311   4.830   3.018   1.994
  735WAT     H1 2312   4.775   3.063   2.058
  735WAT     H2 2313   4.893   2.968   2.046
  736WAT      O 2314   5.236   3.153   3.587
  736WAT     H1 2315   5.310   3.187   3.537
  736WAT     H2 2316   5.159   3.170   3.532
  737WAT      O 2317   4.019   2.654   3.667
  737WAT     H1 2318   4.023   2.624   3.758
  737WAT     H2 2319   4.105   2.694   3.651
  738WAT      O 2320   4.397   2.914   2.183
  738WAT     H1 2321   4.439   2.897   2.268
  738WAT     H2 2322   4.410   2.833   2.134
  739WAT      O 2323   4.213   2.512   3.464
  739WAT     H1 2324   4.160   2.463   3.401
  739WAT     H2 2325   4.280   2.555   3.411
  740WAT      O 2326   4.648   2.816   1.908
  740WAT     H1 2327   4.700   2.745   1.872
  740WAT     H2 2328   4.713   2.880   1.938
  741WAT      O 2329   5.103   2.959   3.440
  741WAT     H1 2330   5.145   2.974   3.525
  741WAT     H2 2331   5.010   2.971   3.457
  742WAT      O 2332   5.150   2.693   3.641
  742WAT     H1 2333   5.209   2.617   3.632
  742WAT     H2 2334   5.168   2.746   3.563
  743WAT      O 2335   4.262   2.209   3.472
  743WAT     H1 2336   4.253   2.147   3.400
  743WAT     H2 2337   4.204   2.281   3.449
  744WAT      O 2338   4.539   2.064   3.175
  744WAT     H1 2339   4.494   2.067   3.091
  744WAT     H2 2340   4.475   2.024   3.235
  745WAT      O 2341   4.579   2.954   3.237
  745WAT     H1 2342   4.621   3.038   3.220
  745WAT     H2 2343   4.487   2.968   3.215
  746WAT      O 2344   4.813   2.727   3.376
  746WAT     H1 2345   4.825   2.667   3.450
  746WAT     H2 2346   4.899   2.731   3.334
  747WAT      O 2347   5.047   2.782   3.233
  747WAT     H1 2348   4.994   2.835   3.173
  747WAT     H2 2349   5.081   2.846   3.297
  748WAT      O 2350   4.287   2.521   1.878
  748WAT     H1 2351   4.267   2.435   1.914
  748WAT     H2 2352   4.270   2.513   1.784
  749WAT      O 2353   4.364   3.584   3.349
  749WAT     H1 2354   4.311   3.657   3.317
  749WAT     H2 2355   4.390   3.537   3.270
  750WAT      O 2356   4.490   2.381   3.502
  750WAT     H1 2357   4.549   2.350   3.570
  750WAT     H2 2358   4.408   2.334   3.517
  751WAT      O 2359   4.972   2.343   3.525
  751WAT     H1 2360   4.903   2.277   3.518
  751WAT     H2 2361   5.044   2.298   3.569
  752WAT      O 2362   5.035   2.002   2.131
  752WAT     H1 2363   5.063   1.918   2.166
  752WAT     H2 2364   4.957   2.026   2.182
  753WAT      O 2365   4.166   2.231   1.877
  753WAT     H1 2366   4.197   2.232   1.786
  753WAT     H2 2367   4.240   2.196   1.926
  754WAT      O 2368   4.650   3.708   3.375
  754WAT     H1 2369   4.643   3.798   3.406
  754WAT     H2 2370   4.560   3.676   3.372
  755WAT      O 2371   4.488   2.126   1.975
  755WAT     H1 2372   4.454   2.058   1.917
  755WAT     H2 2373   4.508   2.080   2.057
  756WAT      O 2374   4.705   3.624   2.137
  756WAT     H1 2375   4.794   3.658   2.139
  756WAT     H2 2376   4.708   3.552   2.074
  757WAT      O 2377   4.069   3.162   1.960
  757WAT     H1 2378   4.113   3.216   2.026
  757WAT     H2 2379   4.117   3.079   1.961
  758WAT      O 2380   3.790   3.441   2.705
  758WAT     H1 2381   3.823   3.354   2.682
  758WAT     H2 2382   3.833   3.461   2.788
  759WAT      O 2383   4.250   3.274   2.471
  759WAT     H1 2384   4.220   3.261   2.561
  759WAT     H2 2385   4.239   3.188   2.430
  760WAT      O 2386   3.839   3.527   2.979
  760WAT     H1 2387   3.795   3.545   3.062
  760WAT     H2 2388   3.896   3.603   2.965
  761WAT      O 2389   5.271   3.150   3.218
  761WAT     H1 2390   5.190   3.193   3.244
  761WAT     H2 2391   5.312   3.211   3.156
  762WAT      O 2392   5.117   2.258   2.037
  762WAT     H1 2393   5.159   2.239   1.953
  762WAT     H2 2394   5.087   2.173   2.068
  763WAT      O 2395   3.881   2.508   3.460
  763WAT     H1 2396   3.792   2.505   3.493
  763WAT     H2 2397   3.935   2.528   3.536
  764WAT      O 2398   5.250   2.186   3.648
  764WAT     H1 2399   5.338   2.187   3.686
  764WAT     H2 2400   5.251   2.113   3.587
  765WAT      O 2401   3.744   2.500   2.209
  765WAT     H1 2402   3.653   2.526   2.192
  765WAT     H2 2403   3.792   2.527   2.131
  766WAT      O 2404   3.998   2.405   2.000
  766WAT     H1 2405   4.069   2.363   1.952
  766WAT     H2 2406   3.926   2.412   1.937
  767WAT      O 2407   3.963   2.011   1.904
  767WAT     H1 2408   4.035   2.065   1.936
  767WAT     H2 2409   3.990   1.983   1.817
  768WAT      O 2410   5.344   2.498   2.331
  768WAT     H1 2411   5.393   2.474   2.409
  768WAT     H2 2412   5.324   2.414   2.289
  769WAT      O 2413   3.932   1.936   2.894
  769WAT     H1 2414   3.996   1.881   2.850
  769WAT     H2 2415   3.974   1.961   2.977
  770WAT      O 2416   5.321   1.955   3.230
  770WAT     H1 2417   5.385   2.016   3.267
  770WAT     H2 2418   5.336   1.959   3.136
  771WAT      O 2419   5.277   3.625   2.570
  771WAT     H1 2420   5.337   3.593   2.503
  771WAT     H2 2421   5.303   3.578   2.649
  772WAT      O 2422   3.907   1.951   3.169
  772WAT     H1 2423   3.872   1.997   3.245
  772WAT     H2 2424   3.874   1.862   3.177
  773WAT      O 2425   4.068   3.268   3.585
  773WAT     H1 2426   4.063   3.231   3.673
  773WAT     H2 2427   4.081   3.362   3.599
  774WAT      O 2428   4.438   3.424   3.145
  774WAT     H1 2429   4.414   3.451   3.057
  774WAT     H2 2430   4.532   3.441   3.151
  775WAT      O 2431   4.658   2.070   3.521
  775WAT     H1 2432   4.652   2.130   3.596
  775WAT     H2 2433   4.752   2.060   3.506
  776WAT      O 2434   4.922   2.036   3.485
  776WAT     H1 2435   4.983   2.068   3.419
  776WAT     H2 2436   4.977   1.988   3.547
  777WAT      O 2437   3.974   1.904   3.496
  777WAT     H1 2438   4.029   1.886   3.420
  777WAT     H2 2439   3.981   1.825   3.550
  778WAT      O 2440   4.052   3.563   3.297
  778WAT     H1 2441   3.992   3.550   3.371
  778WAT     H2 2442   4.051   3.479   3.251
  779WAT      O 2443   4.996   1.892   3.117
  779WAT     H1 2444   4.909   1.926   3.097
  779WAT     H2 2445   4.985   1.845   3.200
  780WAT      O 2446   5.087   2.113   3.256
  780WAT     H1 2447   5.054   2.032   3.218
  780WAT     H2 2448   5.182   2.109   3.244
  781WAT      O 2449   5.332   3.690   2.953
  781WAT     H1 2450   5.286   3.765   2.916
  781WAT     H2 2451   5.269   3.618   2.947
  782WAT      O 2452   4.375   3.521   2.871
  782WAT     H1 2453   4.427   3.460   2.818
  782WAT     H2 2454   4.440   3.571   2.920
  783WAT      O 2455   4.649   3.610   2.953
  783WAT     H1 2456   4.678   3.585   2.866
  783WAT     H2 2457   4.700   3.555   3.012
  784WAT      O 2458   4.771   1.984   3.011
  784WAT     H1 2459   4.693   2.031   3.039
  784WAT     H2 2460   4.741   1.894   3.001
  785WAT      O 2461   5.226   2.054   2.816
  785WAT     H1 2462   5.270   2.049   2.731
  785WAT     H2 2463   5.199   2.146   2.823
  786WAT      O 2464   3.843   3.631   2.513
  786WAT     H1 2465   3.826   3.568   2.583
  786WAT     H2 2466   3.756   3.652   2.478
  787WAT      O 2467   3.905   2.015   2.264
  787WAT     H1 2468   3.981   2.026   2.206
  787WAT     H2 2469   3.859   2.098   2.259
  788WAT      O 2470   4.559   2.226   2.563
  788WAT     H1 2471   4.478   2.188   2.528
  788WAT     H2 2472   4.610   2.150   2.593
  789WAT      O 2473   5.010   1.892   2.686
  789WAT     H1 2474   5.070   1.950   2.734
  789WAT     H2 2475   4.936   1.949   2.664
  790WAT      O 2476   5.324   1.933   2.214
  790WAT     H1 2477   5.343   2.022   2.240
  790WAT     H2 2478   5.245   1.909   2.263
  791WAT      O 2479   4.004   3.501   2.258
  791WAT     H1 2480   3.951   3.539   2.187
  791WAT     H2 2481   3.996   3.563   2.330
  792WAT      O 2482   4.142   2.067   2.118
  792WAT     H1 2483   4.195   1.988   2.105
  792WAT     H2 2484   4.206   2.135   2.141
  793WAT      O 2485   4.362   2.041   2.423
  793WAT     H1 2486   4.299   1.971   2.440
  793WAT     H2 2487   4.308   2.117   2.401
  794WAT      O 2488   4.656   3.702   3.690
  794WAT     H1 2489   4.748   3.679   3.694
  794WAT     H2 2490   4.654   3.785   3.642
  795WAT      O 2491   4.374   1.969   3.667
  795WAT     H1 2492   4.346   2.019   3.590
  795WAT     H2 2493   4.413   1.889   3.630
  796WAT      O 2494   4.264   3.695   2.145
  796WAT     H1 2495   4.337   3.667   2.090
  796WAT     H2 2496   4.289   3.672   2.234
  797WAT      O 2497   4.180   3.307   2.146
  797WAT     H1 2498   4.117   3.354   2.201
  797WAT     H2 2499   4.191   3.223   2.189
  798WAT      O 2500   5.035   1.910   3.724
  798WAT     H1 2501   5.023   1.942   3.814
  798WAT     H2 2502   5.116   1.950   3.695
  799WAT      O 2503   5.313   3.625   3.672
  799WAT     H1 2504   5.392   3.575   3.652
  799WAT     H2 2505   5.342   3.693   3.733
  800WAT      O 2506   4.925   2.712   0.761
  800WAT     H1 2507   4.917   2.621   0.734
  800WAT     H2 2508   4.884   2.762   0.690
  801WAT      O 2509   4.738   2.890   0.949
  801WAT     H1 2510   4.661   2.842   0.978
  801WAT     H2 2511   4.803   2.822   0.931
  802WAT      O 2512   4.140   2.921   1.037
  802WAT     H1 2513   4.057   2.896   1.076
  802WAT     H2 2514   4.201   2.928   1.110
  803WAT      O 2515   5.140   3.331   0.827
  803WAT     H1 2516   5.094   3.253   0.860
  803WAT     H2 2517   5.222   3.333   0.877
  804WAT      O 2518   4.138   3.325   1.056
  804WAT     H1 2519   4.168   3.236   1.038
  804WAT     H2 2520   4.212   3.380   1.033
  805WAT      O 2521   3.981   2.417   0.415
  805WAT     H1 2522   3.892   2.451   0.405
  805WAT     H2 2523   4.009   2.397   0.326
  806WAT      O 2524   3.777   2.677   1.003
  806WAT     H1 2525   3.834   2.600   1.003
  806WAT     H2 2526   3.777   2.707   0.912
  807WAT      O 2527   4.763   3.559   0.789
  807WAT     H1 2528   4.701   3.605   0.732
  807WAT     H2 2529   4.849   3.575   0.749
  808WAT      O 2530   4.682   3.158   0.949
  808WAT     H1 2531   4.676   3.063   0.933
  808WAT     H2 2532   4.759   3.167   1.007
  809WAT      O 2533   3.902   2.218   1.182
  809WAT     H1 2534   3.884   2.128   1.210
  809WAT     H2 2535   3.861   2.273   1.249
  810WAT      O 2536   4.785   2.438   0.972
  810WAT     H1 2537   4.823   2.351   0.961
  810WAT     H2 2538   4.776   2.472   0.883
  811WAT      O 2539   4.199   2.276   0.518
  811WAT     H1 2540   4.209   2.366   0.549
  811WAT     H2 2541   4.107   2.271   0.489
  812WAT      O 2542   5.164   2.188   0.665
  812WAT     H1 2543   5.246   2.139   0.670
  812WAT     H2 2544   5.167   2.247   0.741
  813WAT      O 2545   3.963   2.468   1.043
  813WAT     H1 2546   4.031   2.494   1.105
  813WAT     H2 2547   3.932   2.384   1.076
  814WAT      O 2548   4.383   2.572   0.952
  814WAT     H1 2549   4.433   2.622   1.016
  814WAT     H2 2550   4.436   2.495   0.934
  815WAT      O 2551   4.211   2.036   1.378
  815WAT     H1 2552   4.211   2.088   1.298
  815WAT     H2 2553   4.128   1.989   1.376
  816WAT      O 2554   4.850   3.048   0.528
  816WAT     H1 2555   4.788   3.094   0.472
  816WAT     H2 2556   4.901   3.117   0.570
  817WAT      O 2557   4.336   3.000   1.196
  817WAT     H1 2558   4.303   3.063   1.260
  817WAT     H2 2559   4.354   3.053   1.118
  818WAT      O 2560   5.187   2.382   0.943
  818WAT     H1 2561   5.117   2.411   1.001
  818WAT     H2 2562   5.223   2.463   0.907
  819WAT      O 2563   4.179   2.207   1.179
  819WAT     H1 2564   4.213   2.292   1.149
  819WAT     H2 2565   4.085   2.222   1.191
  820WAT      O 2566   4.257   3.197   1.377
  820WAT     H1 2567   4.319   3.265   1.349
  820WAT     H2 2568   4.171   3.238   1.368
  821WAT      O 2569   3.787   3.116   0.265
  821WAT     H1 2570   3.749   3.165   0.192
  821WAT     H2 2571   3.812   3.183   0.329
  822WAT      O 2572   5.349   3.344   1.169
  822WAT     H1 2573   5.281   3.411   1.168
  822WAT     H2 2574   5.403   3.363   1.092
  823WAT      O 2575   4.547   1.956   0.811
  823WAT     H1 2576   4.578   1.901   0.740
  823WAT     H2 2577   4.454   1.970   0.793
  824WAT      O 2578   5.103   3.528   1.040
  824WAT     H1 2579   5.104   3.488   0.954
  824WAT     H2 2580   5.047   3.605   1.030
  825WAT      O 2581   5.232   3.200   0.549
  825WAT     H1 2582   5.221   3.106   0.562
  825WAT     H2 2583   5.232   3.236   0.638
  826WAT      O 2584   5.042   3.018   1.173
  826WAT     H1 2585   5.084   2.997   1.090
  826WAT     H2 2586   5.115   3.044   1.230
  827WAT      O 2587   4.786   2.763   0.485
  827WAT     H1 2588   4.694   2.756   0.508
  827WAT     H2 2589   4.801   2.857   0.474
  828WAT      O 2590   5.189   2.919   0.535
  828WAT     H1 2591   5.127   2.885   0.471
  828WAT     H2 2592   5.187   2.855   0.606
  829WAT      O 2593   5.133   2.537   1.277
  829WAT     H1 2594   5.092   2.619   1.302
  829WAT     H2 2595   5.060   2.478   1.258
  830WAT      O 2596   4.347   2.815   0.763
  830WAT     H1 2597   4.306   2.744   0.714
  830WAT     H2 2598   4.355   2.781   0.852
  831WAT      O 2599   4.394   3.184   0.980
  831WAT     H1 2600   4.364   3.124   0.912
  831WAT     H2 2601   4.489   3.188   0.968
  832WAT      O 2602   4.218   2.493   1.141
  832WAT     H1 2603   4.273   2.504   1.064
  832WAT     H2 2604   4.270   2.530   1.213
  833WAT      O 2605   5.202   3.541   1.346
  833WAT     H1 2606   5.155   3.622   1.327
  833WAT     H2 2607   5.134   3.476   1.361
  834WAT      O 2608   4.303   3.158   1.645
  834WAT     H1 2609   4.213   3.180   1.669
  834WAT     H2 2610   4.305   3.170   1.550
  835WAT      O 2611   5.007   2.843   0.236
  835WAT     H1 2612   5.051   2.759   0.221
  835WAT     H2 2613   5.078   2.906   0.245
  836WAT      O 2614   4.185   2.845   1.502
  836WAT     H1 2615   4.172   2.932   1.539
  836WAT     H2 2616   4.097   2.811   1.488
  837WAT      O 2617   4.818   3.337   0.633
  837WAT     H1 2618   4.862   3.411   0.591
  837WAT     H2 2619   4.812   3.361   0.725
  838WAT      O 2620   4.365   3.439   1.723
  838WAT     H1 2621   4.362   3.480   1.636
  838WAT     H2 2622   4.349   3.346   1.707
  839WAT      O 2623   4.017   2.705   0.513
  839WAT     H1 2624   4.005   2.778   0.452
  839WAT     H2 2625   3.986   2.628   0.465
  840WAT      O 2626   3.781   3.022   1.094
  840WAT     H1 2627   3.788   3.036   0.999
  840WAT     H2 2628   3.842   2.951   1.113
  841WAT      O 2629   3.905   3.192   0.735
  841WAT     H1 2630   3.864   3.206   0.650
  841WAT     H2 2631   3.994   3.164   0.715
  842WAT      O 2632   4.887   3.607   1.426
  842WAT     H1 2633   4.938   3.598   1.506
  842WAT     H2 2634   4.803   3.642   1.455
  843WAT      O 2635   5.084   3.636   0.368
  843WAT     H1 2636   5.069   3.607   0.458
  843WAT     H2 2637   5.068   3.558   0.315
  844WAT      O 2638   4.332   3.613   0.546
  844WAT     H1 2639   4.315   3.522   0.525
  844WAT     H2 2640   4.247   3.649   0.570
  845WAT      O 2641   5.011   3.549   0.632
  845WAT     H1 2642   5.057   3.471   0.663
  845WAT     H2 2643   5.045   3.620   0.686
  846WAT      O 2644   3.786   3.126   1.348
  846WAT     H1 2645   3.803   3.079   1.266
  846WAT     H2 2646   3.833   3.075   1.414
  847WAT      O 2647   4.263   2.039   0.851
  847WAT     H1 2648   4.219   2.117   0.818
  847WAT     H2 2649   4.319   2.072   0.922
  848WAT      O 2650   4.692   2.326   1.412
  848WAT     H1 2651   4.646   2.347   1.493
  848WAT     H2 2652   4.652   2.245   1.382
  849WAT      O 2653   5.192   2.448   1.525
  849WAT     H1 2654   5.107   2.418   1.557
  849WAT     H2 2655   5.176   2.472   1.434
  850WAT      O 2656   4.902   2.598   1.735
  850WAT     H1 2657   4.934   2.515   1.701
  850WAT     H2 2658   4.981   2.650   1.750
  851WAT      O 2659   4.575   2.001   0.340
  851WAT     H1 2660   4.513   2.001   0.412
  851WAT     H2 2661   4.566   1.915   0.300
  852WAT      O 2662   4.467   2.094   1.037
  852WAT     H1 2663   4.497   2.184   1.029
  852WAT     H2 2664   4.522   2.045   0.976
  853WAT      O 2665   4.243   2.552   0.624
  853WAT     H1 2666   4.220   2.530   0.715
  853WAT     H2 2667   4.165   2.595   0.590
  854WAT      O 2668   4.966   2.552   0.484
  854WAT     H1 2669   4.906   2.625   0.466
  854WAT     H2 2670   5.020   2.546   0.406
  855WAT      O 2671   4.487   2.641   1.691
  855WAT     H1 2672   4.477   2.547   1.676
  855WAT     H2 2673   4.571   2.664   1.651
  856WAT      O 2674   4.826   2.416   0.687
  856WAT     H1 2675   4.866   2.448   0.606
  856WAT     H2 2676   4.862   2.328   0.699
  857WAT      O 2677   4.000   2.283   1.506
  857WAT     H1 2678   3.960   2.367   1.527
  857WAT     H2 2679   3.931   2.219   1.525
  858WAT      O 2680   4.657   2.291   1.813
  858WAT     H1 2681   4.588   2.272   1.877
  858WAT     H2 2682   4.731   2.319   1.866
  859WAT      O 2683   3.730   2.075   0.910
  859WAT     H1 2684   3.701   2.132   0.981
  859WAT     H2 2685   3.804   2.027   0.946
  860WAT      O 2686   4.885   2.675   1.097
  860WAT     H1 2687   4.812   2.726   1.132
  860WAT     H2 2688   4.845   2.593   1.067
  861WAT      O 2689   4.529   2.342   0.937
  861WAT     H1 2690   4.529   2.298   0.852
  861WAT     H2 2691   4.618   2.375   0.948
  862WAT      O 2692   4.114   2.331   0.833
  862WAT     H1 2693   4.080   2.378   0.909
  862WAT     H2 2694   4.037   2.285   0.797
  863WAT      O 2695   4.535   2.443   0.236
  863WAT     H1 2696   4.547   2.438   0.331
  863WAT     H2 2697   4.496   2.529   0.221
  864WAT      O 2698   4.931   2.220   1.038
  864WAT     H1 2699   4.933   2.265   1.122
  864WAT     H2 2700   4.906   2.130   1.059
  865WAT      O 2701   5.274   1.962   1.622
  865WAT     H1 2702   5.306   1.888   1.674
  865WAT     H2 2703   5.277   1.930   1.532
  866WAT      O 2704   3.944   3.064   1.564
  866WAT     H1 2705   3.905   3.000   1.624
  866WAT     H2 2706   3.975   3.134   1.621
  867WAT      O 2707   4.559   2.748   1.112
  867WAT     H1 2708   4.595   2.701   1.187
  867WAT     H2 2709   4.540   2.836   1.146
  868WAT      O 2710   3.845   2.223   0.725
  868WAT     H1 2711   3.817   2.186   0.809
  868WAT     H2 2712   3.839   2.150   0.663
  869WAT      O 2713   4.338   2.653   1.344
  869WAT     H1 2714   4.307   2.740   1.366
  869WAT     H2 2715   4.433   2.659   1.347
  870WAT      O 2716   4.190   3.073   0.403
  870WAT     H1 2717   4.113   3.019   0.387
  870WAT     H2 2718   4.263   3.021   0.370
  871WAT      O 2719   5.266   2.973   0.983
  871WAT     H1 2720   5.338   3.022   0.944
  871WAT     H2 2721   5.246   2.905   0.918
  872WAT      O 2722   4.812   2.112   0.397
  872WAT     H1 2723   4.731   2.062   0.389
  872WAT     H2 2724   4.793   2.196   0.355
  873WAT      O 2725   4.805   2.980   1.571
  873WAT     H1 2726   4.798   2.888   1.546
  873WAT     H2 2727   4.742   2.990   1.643
  874WAT      O 2728   5.084   2.549   0.227
  874WAT     H1 2729   5.173   2.581   0.209
  874WAT     H2 2730   5.081   2.462   0.187
  875WAT      O 2731   4.195   3.040   0.767
  875WAT     H1 2732   4.247   2.960   0.762
  875WAT     H2 2733   4.150   3.034   0.851
  876WAT      O 2734   4.684   3.167   0.294
  876WAT     H1 2735   4.718   3.241   0.245
  876WAT     H2 2736   4.601   3.198   0.331
  877WAT      O 2737   3.943   2.737   1.458
  877WAT     H1 2738   3.907   2.803   1.517
  877WAT     H2 2739   3.914   2.653   1.496
  878WAT      O 2740   4.263   2.782   1.747
  878WAT     H1 2741   4.233   2.797   1.657
  878WAT     H2 2742   4.341   2.726   1.738
  879WAT      O 2743   4.798   3.262   1.546
  879WAT     H1 2744   4.799   3.169   1.525
  879WAT     H2 2745   4.727   3.271   1.610
  880WAT      O 2746   4.972   3.099   0.831
  880WAT     H1 2747   5.007   3.039   0.765
  880WAT     H2 2748   4.883   3.066   0.848
  881WAT      O 2749   4.580   3.175   0.572
  881WAT     H1 2750   4.649   3.229   0.610
  881WAT     H2 2751   4.502   3.229   0.575
  882WAT      O 2752   4.511   2.875   0.533
  882WAT     H1 2753   4.556   2.956   0.555
  882WAT     H2 2754   4.476   2.843   0.616
  883WAT      O 2755   4.741   3.426   1.256
  883WAT     H1 2756   4.805   3.447   1.324
  883WAT     H2 2757   4.777   3.350   1.211
  884WAT      O 2758   4.101   1.910   0.580
  884WAT     H1 2759   4.088   1.909   0.675
  884WAT     H2 2760   4.018   1.943   0.545
  885WAT      O 2761   4.868   3.227   1.128
  885WAT     H1 2762   4.933   3.157   1.139
  885WAT     H2 2763   4.921   3.305   1.110
  886WAT      O 2764   5.046   3.307   1.448
  886WAT     H1 2765   5.079   3.365   1.516
  886WAT     H2 2766   4.954   3.293   1.471
  887WAT      O 2767   3.801   2.085   1.526
  887WAT     H1 2768   3.729   2.105   1.587
  887WAT     H2 2769   3.843   2.008   1.563
  888WAT      O 2770   5.211   3.047   0.266
  888WAT     H1 2771   5.182   3.093   0.345
  888WAT     H2 2772   5.291   3.001   0.293
  889WAT      O 2773   3.829   3.484   1.625
  889WAT     H1 2774   3.840   3.390   1.611
  889WAT     H2 2775   3.764   3.511   1.560
  890WAT      O 2776   4.629   3.311   1.765
  890WAT     H1 2777   4.597   3.240   1.819
  890WAT     H2 2778   4.561   3.379   1.772
  891WAT      O 2779   4.433   3.396   0.259
  891WAT     H1 2780   4.432   3.469   0.198
  891WAT     H2 2781   4.341   3.371   0.268
  892WAT      O 2782   3.993   2.918   0.334
  892WAT     H1 2783   3.932   2.992   0.335
  892WAT     H2 2784   4.040   2.927   0.251
  893WAT      O 2785   4.950   2.335   1.301
  893WAT     H1 2786   4.987   2.253   1.334
  893WAT     H2 2787   4.864   2.341   1.343
  894WAT      O 2788   5.287   2.230   0.382
  894WAT     H1 2789   5.224   2.241   0.311
  894WAT     H2 2790   5.237   2.252   0.461
  895WAT      O 2791   4.484   2.458   0.524
  895WAT     H1 2792   4.413   2.505   0.568
  895WAT     H2 2793   4.512   2.392   0.587
  896WAT      O 2794   4.646   2.600   1.324
  896WAT     H1 2795   4.696   2.648   1.390
  896WAT     H2 2796   4.660   2.508   1.344
  897WAT      O 2797   4.887   2.131   0.668
  897WAT     H1 2798   4.874   2.133   0.573
  897WAT     H2 2799   4.982   2.135   0.680
  898WAT      O 2800   4.596   3.654   0.595
  898WAT     H1 2801   4.621   3.650   0.503
  898WAT     H2 2802   4.501   3.642   0.594
  899WAT      O 2803   4.304   2.289   0.261
  899WAT     H1 2804   4.389   2.333   0.255
  899WAT     H2 2805   4.267   2.320   0.344
  900WAT      O 2806   5.196   2.746   0.752
  900WAT     H1 2807   5.102   2.748   0.770
  900WAT     H2 2808   5.227   2.667   0.797
  901WAT      O 2809   4.063   2.658   0.177
  901WAT     H1 2810   4.071   2.563   0.188
  901WAT     H2 2811   4.153   2.691   0.187
  902WAT      O 2812   4.143   3.673   0.887
  902WAT     H1 2813   4.217   3.618   0.914
  902WAT     H2 2814   4.182   3.759   0.873
  903WAT      O 2815   3.832   3.279   0.475
  903WAT     H1 2816   3.739   3.303   0.474
  903WAT     H2 2817   3.879   3.362   0.462
  904WAT      O 2818   4.044   3.591   1.806
  904WAT     H1 2819   4.124   3.623   1.847
  904WAT     H2 2820   3.993   3.555   1.878
  905WAT      O 2821   4.928   3.202   1.801
  905WAT     H1 2822   4.867   3.204   1.727
  905WAT     H2 2823   4.897   3.129   1.854
  906WAT      O 2824   5.071   3.575   1.662
  906WAT     H1 2825   5.166   3.566   1.657
  906WAT     H2 2826   5.056   3.641   1.729
  907WAT      O 2827   3.816   2.840   1.700
  907WAT     H1 2828   3.866   2.782   1.758
  907WAT     H2 2829   3.742   2.868   1.754
  908WAT      O 2830   4.521   2.980   1.654
  908WAT     H1 2831   4.445   3.037   1.645
  908WAT     H2 2832   4.540   2.951   1.564
  909WAT      O 2833   5.236   3.153   1.709
  909WAT     H1 2834   5.310   3.187   1.659
  909WAT     H2 2835   5.159   3.170   1.654
  910WAT      O 2836   4.019   2.654   1.790
  910WAT     H1 2837   4.023   2.624   1.881
  910WAT     H2 2838   4.105   2.694   1.774
  911WAT      O 2839   4.397   2.914   0.306
  911WAT     H1 2840   4.439   2.897   0.390
  911WAT     H2 2841   4.410   2.833   0.256
  912WAT      O 2842   4.213   2.512   1.587
  912WAT     H1 2843   4.160   2.463   1.524
  912WAT     H2 2844   4.280   2.555   1.533
  913WAT      O 2845   5.103   2.959   1.563
  913WAT     H1 2846   5.145   2.974   1.648
  913WAT     H2 2847   5.010   2.971   1.579
  914WAT      O 2848   5.150   2.693   1.763
  914WAT     H1 2849   5.209   2.617   1.755
  914WAT     H2 2850   5.168   2.746   1.686
  915WAT      O 2851   4.262   2.209   1.595
  915WAT     H1 2852   4.253   2.147   1.522
  915WAT     H2 2853   4.204   2.281   1.572
  916WAT      O 2854   4.539   2.064   1.298
  916WAT     H1 2855   4.494   2.067   1.213
  916WAT     H2 2856   4.475   2.024   1.358
  917WAT      O 2857   4.579   2.954   1.360
  917WAT     H1 2858   4.621   3.038   1.343
  917WAT     H2 2859   4.487   2.968   1.337
  918WAT      O 2860   4.813   2.727   1.498
  918WAT     H1 2861   4.825   2.667   1.572
  918WAT     H2 2862   4.899   2.731   1.456
  919WAT      O 2863   5.047   2.782   1.356
  919WAT     H1 2864   4.994   2.835   1.296
  919WAT     H2 2865   5.081   2.846   1.419
  920WAT      O 2866   4.364   3.584   1.472
  920WAT     H1 2867   4.311   3.657   1.440
  920WAT     H2 2868   4.390   3.537   1.393
  921WAT      O 2869   4.490   2.381   1.624
  921WAT     H1 2870   4.549   2.350   1.693
  921WAT     H2 2871   4.408   2.334   1.640
  922WAT      O 2872   4.972   2.343   1.647
  922WAT     H1 2873   4.903   2.277   1.641
  922WAT     H2 2874   5.044   2.298   1.692
  923WAT      O 2875   5.035   2.002   0.253
  923WAT     H1 2876   5.063   1.918   0.289
  923WAT     H2 2877   4.957   2.026   0.305
  924WAT      O 2878   4.650   3.708   1.497
  924WAT     H1 2879   4.643   3.798   1.528
  924WAT     H2 2880   4.560   3.676   1.495
  925WAT      O 2881   4.705   3.624   0.260
  925WAT     H1 2882   4.794   3.658   0.262
  925WAT     H2 2883   4.708   3.552   0.197
  926WAT      O 2884   3.790   3.441   0.828
  926WAT     H1 2885   3.823   3.354   0.805
  926WAT     H2 2886   3.833   3.461   0.911
  927WAT      O 2887   4.250   3.274   0.594
  927WAT     H1 2888   4.220   3.261   0.684
  927WAT     H2 2889   4.239   3.188   0.553
  928WAT      O 2890   3.839   3.527   1.102
  928WAT     H1 2891   3.795   3.545   1.185
  928WAT     H2 2892   3.896   3.603   1.087
  929WAT      O 2893   3.822   2.779   0.737
  929WAT     H1 2894   3.757   2.752   0.673
  929WAT     H2 2895   3.906   2.768   0.693
  930WAT      O 2896   5.271   3.150   1.340
  930WAT     H1 2897   5.190   3.193   1.366
  930WAT     H2 2898   5.312   3.211   1.279
  931WAT      O 2899   3.926   2.817   1.192
  931WAT     H1 2900   3.963   2.808   1.279
  931WAT     H2 2901   3.869   2.741   1.182
  932WAT      O 2902   3.881   2.508   1.582
  932WAT     H1 2903   3.792   2.505   1.616
  932WAT     H2 2904   3.935   2.528   1.659
  933WAT      O 2905   5.250   2.186   1.771
  933WAT     H1 2906   5.338   2.187   1.809
  933WAT     H2 2907   5.251   2.113   1.710
  934WAT      O 2908   3.744   2.500   0.332
  934WAT     H1 2909   3.653   2.526   0.314
  934WAT     H2 2910   3.792   2.527   0.254
  935WAT      O 2911   5.344   2.498   0.453
  935WAT     H1 2912   5.393   2.474   0.532
  935WAT     H2 2913   5.324   2.414   0.412
  936WAT      O 2914   3.932   1.936   1.017
  936WAT     H1 2915   3.996   1.881   0.973
  936WAT     H2 2916   3.974   1.961   1.099
  937WAT      O 2917   5.321   1.955   1.353
  937WAT     H1 2918   5.385   2.016   1.389
  937WAT     H2 2919   5.336   1.959   1.258
  938WAT      O 2920   5.277   3.625   0.693
  938WAT     H1 2921   5.337   3.593   0.625
  938WAT     H2 2922   5.303   3.578   0.772
  939WAT      O 2923   3.907   1.951   1.291
  939WAT     H1 2924   3.872   1.997   1.368
  939WAT     H2 2925   3.874   1.862   1.299
  940WAT      O 2926   4.068   3.268   1.708
  940WAT     H1 2927   4.063   3.231   1.796
  940WAT     H2 2928   4.081   3.362   1.722
  941WAT      O 2929   4.438   3.424   1.268
  941WAT     H1 2930   4.414   3.451   1.179
  941WAT     H2 2931   4.532   3.441   1.273
  942WAT      O 2932   4.658   2.070   1.643
  942WAT     H1 2933   4.652   2.130   1.718
  942WAT     H2 2934   4.752   2.060   1.629
  943WAT      O 2935   4.922   2.036   1.607
  943WAT     H1 2936   4.983   2.068   1.541
  943WAT     H2 2937   4.977   1.988   1.669
  944WAT      O 2938   3.974   1.904   1.619
  944WAT     H1 2939   4.029   1.886   1.542
  944WAT     H2 2940   3.981   1.825   1.672
  945WAT      O 2941   4.052   3.563   1.420
  945WAT     H1 2942   3.992   3.550   1.494
  945WAT     H2 2943   4.051   3.479   1.373
  946WAT      O 2944   4.996   1.892   1.240
  946WAT     H1 2945   4.909   1.926   1.220
  946WAT     H2 2946   4.985   1.845   1.323
  947WAT      O 2947   5.087   2.113   1.378
  947WAT     H1 2948   5.054   2.032   1.340
  947WAT     H2 2949   5.182   2.109   1.366
  948WAT      O 2950   5.332   3.690   1.076
  948WAT     H1 2951   5.286   3.765   1.038
  948WAT     H2 2952   5.269   3.618   1.070
  949WAT      O 2953   4.015   3.300   1.315
  949WAT     H1 2954   3.942   3.238   1.308
  949WAT     H2 2955   4.021   3.339   1.228
  950WAT      O 2956   4.375   3.521   0.993
  950WAT     H1 2957   4.427   3.460   0.941
  950WAT     H2 2958   4.440   3.571   1.042
  951WAT      O 2959   4.649   3.610   1.076
  951WAT     H1 2960   4.678   3.585   0.988
  951WAT     H2 2961   4.700   3.555   1.135
  952WAT      O 2962   4.771   1.984   1.134
  952WAT     H1 2963   4.693   2.031   1.162
  952WAT     H2 2964   4.741   1.894   1.123
  953WAT      O 2965   5.226   2.054   0.938
  953WAT     H1 2966   5.270   2.049   0.854
  953WAT     H2 2967   5.199   2.146   0.946
  954WAT      O 2968   3.843   3.631   0.636
  954WAT     H1 2969   3.826   3.568   0.706
  954WAT     H2 2970   3.756   3.652   0.601
  955WAT      O 2971   3.905   2.015   0.386
  955WAT     H1 2972   3.981   2.026   0.329
  955WAT     H2 2973   3.859   2.098   0.382
  956WAT      O 2974   4.559   2.226   0.685
  956WAT     H1 2975   4.478   2.188   0.651
  956WAT     H2 2976   4.610   2.150   0.715
  957WAT      O 2977   5.010   1.892   0.809
  957WAT     H1 2978   5.070   1.950   0.856
  957WAT     H2 2979   4.936   1.949   0.787
  958WAT      O 2980   5.324   1.933   0.336
  958WAT     H1 2981   5.343   2.022   0.363
  958WAT     H2 2982   5.245   1.909   0.386
  959WAT      O 2983   4.004   3.501   0.380
  959WAT     H1 2984   3.951   3.539   0.310
  959WAT     H2 2985   3.996   3.563   0.452
  960WAT      O 2986   4.142   2.067   0.240
  960WAT     H1 2987   4.195   1.988   0.227
  960WAT     H2 2988   4.206   2.135   0.263
  961WAT      O 2989   4.362   2.041   0.546
  961WAT     H1 2990   4.299   1.971   0.562
  961WAT     H2 2991   4.308   2.117   0.524
  962WAT      O 2992   4.656   3.702   1.813
  962WAT     H1 2993   4.748   3.679   1.817
  962WAT     H2 2994   4.654   3.785   1.765
  963WAT      O 2995   4.374   1.969   1.789
  963WAT     H1 2996   4.346   2.019   1.713
  963WAT     H2 2997   4.413   1.889   1.752
  964WAT      O 2998   4.264   3.695   0.268
  964WAT     H1 2999   4.337   3.667   0.213
  964WAT     H2 3000   4.289   3.672   0.357
  965WAT      O 3001   4.180   3.307   0.268
  965WAT     H1 3002   4.117   3.354   0.323
  965WAT     H2 3003   4.191   3.223   0.312
  966WAT      O 3004   5.035   1.910   1.847
  966WAT     H1 3005   5.023   1.942   1.936
  966WAT     H2 3006   5.116   1.950   1.817
  967WAT      O 3007   5.313   3.625   1.795
  967WAT     H1 3008   5.392   3.575   1.774
  967WAT     H2 3009   5.342   3.693   1.856
  968WAT      O 3010   4.925   0.835   4.516
  968WAT     H1 3011   4.917   0.743   4.488
  968WAT     H2 3012   4.884   0.884   4.445
  969WAT      O 3013   4.738   1.013   4.704
  969WAT     H1 3014   4.661   0.965   4.733
  969WAT     H2 3015   4.803   0.945   4.686
  970WAT      O 3016   4.140   1.044   4.791
  970WAT     H1 3017   4.057   1.018   4.831
  970WAT     H2 3018   4.201   1.051   4.865
  971WAT      O 3019   5.140   1.453   4.582
  971WAT     H1 3020   5.094   1.376   4.614
  971WAT     H2 3021   5.222   1.456   4.632
  972WAT      O 3022   4.138   1.447   4.811
  972WAT     H1 3023   4.168   1.358   4.793
  972WAT     H2 3024   4.212   1.503   4.788
  973WAT      O 3025   3.981   0.540   4.170
  973WAT     H1 3026   3.892   0.574   4.160
  973WAT     H2 3027   4.009   0.520   4.081
  974WAT      O 3028   3.777   0.800   4.758
  974WAT     H1 3029   3.834   0.723   4.758
  974WAT     H2 3030   3.777   0.830   4.667
  975WAT      O 3031   4.763   1.682   4.544
  975WAT     H1 3032   4.701   1.727   4.487
  975WAT     H2 3033   4.849   1.697   4.504
  976WAT      O 3034   4.682   1.280   4.704
  976WAT     H1 3035   4.676   1.186   4.688
  976WAT     H2 3036   4.759   1.289   4.762
  977WAT      O 3037   3.902   0.341   4.937
  977WAT     H1 3038   3.884   0.251   4.965
  977WAT     H2 3039   3.861   0.395   5.004
  978WAT      O 3040   4.785   0.561   4.727
  978WAT     H1 3041   4.823   0.474   4.716
  978WAT     H2 3042   4.776   0.594   4.638
  979WAT      O 3043   4.199   0.398   4.273
  979WAT     H1 3044   4.209   0.488   4.304
  979WAT     H2 3045   4.107   0.393   4.244
  980WAT      O 3046   5.164   0.310   4.420
  980WAT     H1 3047   5.246   0.261   4.425
  980WAT     H2 3048   5.167   0.369   4.496
  981WAT      O 3049   3.963   0.590   4.798
  981WAT     H1 3050   4.031   0.617   4.860
  981WAT     H2 3051   3.932   0.506   4.831
  982WAT      O 3052   4.383   0.695   4.706
  982WAT     H1 3053   4.433   0.745   4.770
  982WAT     H2 3054   4.436   0.617   4.689
  983WAT      O 3055   4.850   1.170   4.283
  983WAT     H1 3056   4.788   1.217   4.227
  983WAT     H2 3057   4.901   1.239   4.325
  984WAT      O 3058   4.336   1.123   4.951
  984WAT     H1 3059   4.303   1.186   5.015
  984WAT     H2 3060   4.354   1.176   4.873
  985WAT      O 3061   5.187   0.504   4.698
  985WAT     H1 3062   5.117   0.533   4.756
  985WAT     H2 3063   5.223   0.585   4.662
  986WAT      O 3064   4.179   0.330   4.934
  986WAT     H1 3065   4.213   0.414   4.904
  986WAT     H2 3066   4.085   0.345   4.945
  987WAT      O 3067   4.257   1.320   5.132
  987WAT     H1 3068   4.319   1.387   5.104
  987WAT     H2 3069   4.171   1.361   5.123
  988WAT      O 3070   3.787   1.239   4.020
  988WAT     H1 3071   3.749   1.288   3.947
  988WAT     H2 3072   3.812   1.306   4.083
  989WAT      O 3073   5.349   1.466   4.924
  989WAT     H1 3074   5.281   1.533   4.923
  989WAT     H2 3075   5.403   1.486   4.847
  990WAT      O 3076   5.103   1.651   4.795
  990WAT     H1 3077   5.104   1.610   4.709
  990WAT     H2 3078   5.047   1.728   4.785
  991WAT      O 3079   5.232   1.323   4.304
  991WAT     H1 3080   5.221   1.228   4.317
  991WAT     H2 3081   5.232   1.359   4.393
  992WAT      O 3082   5.042   1.141   4.928
  992WAT     H1 3083   5.084   1.119   4.845
  992WAT     H2 3084   5.115   1.167   4.985
  993WAT      O 3085   4.786   0.885   4.240
  993WAT     H1 3086   4.694   0.879   4.263
  993WAT     H2 3087   4.801   0.979   4.228
  994WAT      O 3088   4.785   0.513   3.939
  994WAT     H1 3089   4.691   0.529   3.948
  994WAT     H2 3090   4.817   0.584   3.885
  995WAT      O 3091   5.189   1.042   4.290
  995WAT     H1 3092   5.127   1.008   4.225
  995WAT     H2 3093   5.187   0.977   4.361
  996WAT      O 3094   5.133   0.659   5.032
  996WAT     H1 3095   5.092   0.742   5.057
  996WAT     H2 3096   5.060   0.601   5.013
  997WAT      O 3097   4.347   0.938   4.518
  997WAT     H1 3098   4.306   0.867   4.468
  997WAT     H2 3099   4.355   0.904   4.607
  998WAT      O 3100   4.394   1.307   4.734
  998WAT     H1 3101   4.364   1.246   4.666
  998WAT     H2 3102   4.489   1.310   4.723
  999WAT      O 3103   4.218   0.615   4.896
  999WAT     H1 3104   4.273   0.626   4.819
  999WAT     H2 3105   4.270   0.653   4.968
 1000WAT      O 3106   5.202   1.664   5.101
 1000WAT     H1 3107   5.155   1.745   5.081
 1000WAT     H2 3108   5.134   1.599   5.116
 1001WAT      O 3109   4.303   1.280   5.399
 1001WAT     H1 3110   4.213   1.303   5.424
 1001WAT     H2 3111   4.305   1.293   5.305
 1002WAT      O 3112   5.007   0.965   3.991
 1002WAT     H1 3113   5.051   0.882   3.976
 1002WAT     H2 3114   5.078   1.029   4.000
 1003WAT      O 3115   4.185   0.968   5.257
 1003WAT     H1 3116   4.172   1.055   5.294
 1003WAT     H2 3117   4.097   0.933   5.243
 1004WAT      O 3118   4.818   1.459   4.388
 1004WAT     H1 3119   4.862   1.534   4.346
 1004WAT     H2 3120   4.812   1.484   4.480
 1005WAT      O 3121   4.017   0.827   4.268
 1005WAT     H1 3122   4.005   0.900   4.207
 1005WAT     H2 3123   3.986   0.750   4.220
 1006WAT      O 3124   3.781   1.145   4.849
 1006WAT     H1 3125   3.788   1.158   4.754
 1006WAT     H2 3126   3.842   1.074   4.868
 1007WAT      O 3127   3.905   1.315   4.490
 1007WAT     H1 3128   3.864   1.329   4.404
 1007WAT     H2 3129   3.994   1.286   4.470
 1008WAT      O 3130   4.887   1.730   5.181
 1008WAT     H1 3131   4.938   1.721   5.261
 1008WAT     H2 3132   4.803   1.764   5.210
 1009WAT      O 3133   5.084   1.758   4.123
 1009WAT     H1 3134   5.069   1.729   4.213
 1009WAT     H2 3135   5.068   1.680   4.070
 1010WAT      O 3136   4.332   1.736   4.301
 1010WAT     H1 3137   4.315   1.644   4.280
 1010WAT     H2 3138   4.247   1.772   4.325
 1011WAT      O 3139   5.055   1.509   3.979
 1011WAT     H1 3140   4.985   1.509   3.913
 1011WAT     H2 3141   5.129   1.467   3.936
 1012WAT      O 3142   5.011   1.672   4.387
 1012WAT     H1 3143   5.057   1.593   4.418
 1012WAT     H2 3144   5.045   1.743   4.441
 1013WAT      O 3145   3.786   1.249   5.103
 1013WAT     H1 3146   3.803   1.202   5.021
 1013WAT     H2 3147   3.833   1.198   5.169
 1014WAT      O 3148   4.692   0.448   5.167
 1014WAT     H1 3149   4.646   0.469   5.248
 1014WAT     H2 3150   4.652   0.367   5.136
 1015WAT      O 3151   5.192   0.571   5.280
 1015WAT     H1 3152   5.107   0.541   5.312
 1015WAT     H2 3153   5.176   0.595   5.188
 1016WAT      O 3154   4.467   0.216   4.792
 1016WAT     H1 3155   4.497   0.307   4.784
 1016WAT     H2 3156   4.522   0.167   4.731
 1017WAT      O 3157   4.243   0.674   4.379
 1017WAT     H1 3158   4.220   0.653   4.470
 1017WAT     H2 3159   4.165   0.717   4.345
 1018WAT      O 3160   4.966   0.675   4.239
 1018WAT     H1 3161   4.906   0.747   4.221
 1018WAT     H2 3162   5.020   0.669   4.161
 1019WAT      O 3163   4.826   0.538   4.442
 1019WAT     H1 3164   4.866   0.570   4.361
 1019WAT     H2 3165   4.862   0.451   4.454
 1020WAT      O 3166   4.000   0.405   5.261
 1020WAT     H1 3167   3.960   0.490   5.282
 1020WAT     H2 3168   3.931   0.341   5.280
 1021WAT      O 3169   3.749   0.592   3.785
 1021WAT     H1 3170   3.740   0.686   3.800
 1021WAT     H2 3171   3.713   0.577   3.698
 1022WAT      O 3172   4.885   0.797   4.852
 1022WAT     H1 3173   4.812   0.848   4.886
 1022WAT     H2 3174   4.845   0.716   4.821
 1023WAT      O 3175   4.529   0.465   4.692
 1023WAT     H1 3176   4.529   0.421   4.607
 1023WAT     H2 3177   4.618   0.497   4.703
 1024WAT      O 3178   4.114   0.453   4.588
 1024WAT     H1 3179   4.080   0.501   4.664
 1024WAT     H2 3180   4.037   0.408   4.552
 1025WAT      O 3181   4.535   0.565   3.991
 1025WAT     H1 3182   4.547   0.561   4.086
 1025WAT     H2 3183   4.496   0.651   3.976
 1026WAT      O 3184   4.931   0.343   4.793
 1026WAT     H1 3185   4.933   0.388   4.877
 1026WAT     H2 3186   4.906   0.253   4.814
 1027WAT      O 3187   4.436   0.796   3.931
 1027WAT     H1 3188   4.379   0.751   3.868
 1027WAT     H2 3189   4.507   0.832   3.878
 1028WAT      O 3190   3.944   1.186   5.319
 1028WAT     H1 3191   3.905   1.122   5.379
 1028WAT     H2 3192   3.975   1.257   5.376
 1029WAT      O 3193   4.559   0.871   4.867
 1029WAT     H1 3194   4.595   0.824   4.941
 1029WAT     H2 3195   4.540   0.958   4.901
 1030WAT      O 3196   3.845   0.345   4.480
 1030WAT     H1 3197   3.817   0.309   4.563
 1030WAT     H2 3198   3.839   0.272   4.418
 1031WAT      O 3199   4.338   0.775   5.099
 1031WAT     H1 3200   4.307   0.863   5.121
 1031WAT     H2 3201   4.433   0.781   5.102
 1032WAT      O 3202   4.190   1.196   4.158
 1032WAT     H1 3203   4.113   1.142   4.142
 1032WAT     H2 3204   4.263   1.144   4.124
 1033WAT      O 3205   5.266   1.095   4.738
 1033WAT     H1 3206   5.338   1.145   4.698
 1033WAT     H2 3207   5.246   1.028   4.673
 1034WAT      O 3208   4.812   0.235   4.152
 1034WAT     H1 3209   4.731   0.185   4.144
 1034WAT     H2 3210   4.793   0.319   4.110
 1035WAT      O 3211   4.805   1.102   5.326
 1035WAT     H1 3212   4.798   1.010   5.301
 1035WAT     H2 3213   4.742   1.112   5.398
 1036WAT      O 3214   5.084   0.672   3.981
 1036WAT     H1 3215   5.173   0.703   3.964
 1036WAT     H2 3216   5.081   0.585   3.942
 1037WAT      O 3217   4.195   1.163   4.522
 1037WAT     H1 3218   4.247   1.082   4.517
 1037WAT     H2 3219   4.150   1.156   4.606
 1038WAT      O 3220   4.684   1.289   4.049
 1038WAT     H1 3221   4.718   1.364   4.000
 1038WAT     H2 3222   4.601   1.320   4.086
 1039WAT      O 3223   3.943   0.859   5.213
 1039WAT     H1 3224   3.907   0.926   5.272
 1039WAT     H2 3225   3.914   0.776   5.250
 1040WAT      O 3226   4.798   1.385   5.301
 1040WAT     H1 3227   4.799   1.291   5.279
 1040WAT     H2 3228   4.727   1.393   5.365
 1041WAT      O 3229   5.311   0.803   3.928
 1041WAT     H1 3230   5.303   0.846   3.843
 1041WAT     H2 3231   5.383   0.849   3.972
 1042WAT      O 3232   4.972   1.221   4.586
 1042WAT     H1 3233   5.007   1.162   4.520
 1042WAT     H2 3234   4.883   1.189   4.603
 1043WAT      O 3235   4.580   1.297   4.326
 1043WAT     H1 3236   4.649   1.352   4.365
 1043WAT     H2 3237   4.502   1.352   4.330
 1044WAT      O 3238   3.794   0.859   3.876
 1044WAT     H1 3239   3.881   0.887   3.904
 1044WAT     H2 3240   3.745   0.940   3.864
 1045WAT      O 3241   4.511   0.998   4.288
 1045WAT     H1 3242   4.556   1.079   4.310
 1045WAT     H2 3243   4.476   0.966   4.371
 1046WAT      O 3244   4.741   1.549   5.011
 1046WAT     H1 3245   4.805   1.569   5.078
 1046WAT     H2 3246   4.777   1.473   4.965
 1047WAT      O 3247   4.868   1.349   4.882
 1047WAT     H1 3248   4.933   1.279   4.894
 1047WAT     H2 3249   4.921   1.427   4.864
 1048WAT      O 3250   5.253   1.378   3.855
 1048WAT     H1 3251   5.230   1.306   3.914
 1048WAT     H2 3252   5.214   1.353   3.771
 1049WAT      O 3253   5.046   1.429   5.203
 1049WAT     H1 3254   5.079   1.488   5.271
 1049WAT     H2 3255   4.954   1.416   5.226
 1050WAT      O 3256   3.831   1.780   3.932
 1050WAT     H1 3257   3.867   1.840   3.867
 1050WAT     H2 3258   3.817   1.835   4.010
 1051WAT      O 3259   5.211   1.169   4.021
 1051WAT     H1 3260   5.182   1.215   4.100
 1051WAT     H2 3261   5.291   1.123   4.048
 1052WAT      O 3262   3.829   1.607   5.380
 1052WAT     H1 3263   3.840   1.513   5.366
 1052WAT     H2 3264   3.764   1.633   5.315
 1053WAT      O 3265   4.433   1.519   4.014
 1053WAT     H1 3266   4.432   1.592   3.952
 1053WAT     H2 3267   4.341   1.494   4.023
 1054WAT      O 3268   3.993   1.041   4.088
 1054WAT     H1 3269   3.932   1.115   4.089
 1054WAT     H2 3270   4.040   1.050   4.006
 1055WAT      O 3271   4.950   0.457   5.056
 1055WAT     H1 3272   4.987   0.375   5.089
 1055WAT     H2 3273   4.864   0.463   5.098
 1056WAT      O 3274   5.287   0.353   4.137
 1056WAT     H1 3275   5.224   0.363   4.066
 1056WAT     H2 3276   5.237   0.375   4.216
 1057WAT      O 3277   4.731   1.525   3.880
 1057WAT     H1 3278   4.741   1.505   3.787
 1057WAT     H2 3279   4.641   1.499   3.901
 1058WAT      O 3280   4.484   0.581   4.279
 1058WAT     H1 3281   4.413   0.628   4.323
 1058WAT     H2 3282   4.512   0.515   4.342
 1059WAT      O 3283   4.646   0.723   5.078
 1059WAT     H1 3284   4.696   0.770   5.145
 1059WAT     H2 3285   4.660   0.630   5.099
 1060WAT      O 3286   4.887   0.253   4.422
 1060WAT     H1 3287   4.874   0.255   4.328
 1060WAT     H2 3288   4.982   0.258   4.434
 1061WAT      O 3289   4.596   1.777   4.350
 1061WAT     H1 3290   4.621   1.773   4.258
 1061WAT     H2 3291   4.501   1.764   4.349
 1062WAT      O 3292   4.304   0.412   4.016
 1062WAT     H1 3293   4.389   0.455   4.009
 1062WAT     H2 3294   4.267   0.443   4.099
 1063WAT      O 3295   5.196   0.869   4.507
 1063WAT     H1 3296   5.102   0.870   4.525
 1063WAT     H2 3297   5.227   0.790   4.552
 1064WAT      O 3298   4.194   1.037   3.863
 1064WAT     H1 3299   4.271   1.026   3.920
 1064WAT     H2 3300   4.202   0.967   3.798
 1065WAT      O 3301   4.063   0.780   3.932
 1065WAT     H1 3302   4.071   0.685   3.943
 1065WAT     H2 3303   4.153   0.813   3.942
 1066WAT      O 3304   4.143   1.795   4.642
 1066WAT     H1 3305   4.217   1.740   4.669
 1066WAT     H2 3306   4.182   1.882   4.628
 1067WAT      O 3307   3.832   1.402   4.229
 1067WAT     H1 3308   3.739   1.426   4.229
 1067WAT     H2 3309   3.879   1.485   4.217
 1068WAT      O 3310   4.455   1.712   3.824
 1068WAT     H1 3311   4.534   1.741   3.779
 1068WAT     H2 3312   4.403   1.669   3.756
 1069WAT      O 3313   5.360   1.635   3.967
 1069WAT     H1 3314   5.331   1.594   3.885
 1069WAT     H2 3315   5.340   1.728   3.955
 1070WAT      O 3316   4.506   1.234   3.811
 1070WAT     H1 3317   4.496   1.173   3.883
 1070WAT     H2 3318   4.490   1.182   3.732
 1071WAT      O 3319   4.521   1.103   5.409
 1071WAT     H1 3320   4.445   1.160   5.400
 1071WAT     H2 3321   4.540   1.074   5.319
 1072WAT      O 3322   4.830   1.141   3.871
 1072WAT     H1 3323   4.775   1.185   3.936
 1072WAT     H2 3324   4.893   1.090   3.924
 1073WAT      O 3325   4.397   1.037   4.061
 1073WAT     H1 3326   4.439   1.020   4.145
 1073WAT     H2 3327   4.410   0.956   4.011
 1074WAT      O 3328   4.213   0.635   5.342
 1074WAT     H1 3329   4.160   0.585   5.279
 1074WAT     H2 3330   4.280   0.677   5.288
 1075WAT      O 3331   4.648   0.939   3.786
 1075WAT     H1 3332   4.700   0.867   3.749
 1075WAT     H2 3333   4.713   1.003   3.816
 1076WAT      O 3334   5.103   1.081   5.318
 1076WAT     H1 3335   5.145   1.097   5.403
 1076WAT     H2 3336   5.010   1.094   5.334
 1077WAT      O 3337   4.262   0.331   5.349
 1077WAT     H1 3338   4.253   0.269   5.277
 1077WAT     H2 3339   4.204   0.404   5.327
 1078WAT      O 3340   4.579   1.076   5.115
 1078WAT     H1 3341   4.621   1.161   5.098
 1078WAT     H2 3342   4.487   1.090   5.092
 1079WAT      O 3343   4.813   0.850   5.253
 1079WAT     H1 3344   4.825   0.790   5.327
 1079WAT     H2 3345   4.899   0.853   5.211
 1080WAT      O 3346   5.047   0.905   5.111
 1080WAT     H1 3347   4.994   0.957   5.051
 1080WAT     H2 3348   5.081   0.968   5.174
 1081WAT      O 3349   4.287   0.644   3.755
 1081WAT     H1 3350   4.267   0.558   3.792
 1081WAT     H2 3351   4.270   0.635   3.662
 1082WAT      O 3352   4.364   1.707   5.226
 1082WAT     H1 3353   4.311   1.779   5.195
 1082WAT     H2 3354   4.390   1.659   5.147
 1083WAT      O 3355   4.166   0.354   3.754
 1083WAT     H1 3356   4.197   0.355   3.663
 1083WAT     H2 3357   4.240   0.319   3.804
 1084WAT      O 3358   4.650   1.830   5.252
 1084WAT     H1 3359   4.643   1.921   5.283
 1084WAT     H2 3360   4.560   1.799   5.250
 1085WAT      O 3361   4.488   0.248   3.853
 1085WAT     H1 3362   4.454   0.180   3.795
 1085WAT     H2 3363   4.508   0.202   3.934
 1086WAT      O 3364   4.705   1.747   4.015
 1086WAT     H1 3365   4.794   1.781   4.017
 1086WAT     H2 3366   4.708   1.675   3.952
 1087WAT      O 3367   4.069   1.284   3.837
 1087WAT     H1 3368   4.113   1.339   3.903
 1087WAT     H2 3369   4.117   1.202   3.838
 1088WAT      O 3370   3.790   1.563   4.583
 1088WAT     H1 3371   3.823   1.476   4.559
 1088WAT     H2 3372   3.833   1.584   4.666
 1089WAT      O 3373   4.250   1.396   4.349
 1089WAT     H1 3374   4.220   1.384   4.439
 1089WAT     H2 3375   4.239   1.310   4.308
 1090WAT      O 3376   3.839   1.650   4.856
 1090WAT     H1 3377   3.795   1.668   4.940
 1090WAT     H2 3378   3.896   1.726   4.842
 1091WAT      O 3379   3.822   0.901   4.492
 1091WAT     H1 3380   3.757   0.874   4.428
 1091WAT     H2 3381   3.906   0.890   4.447
 1092WAT      O 3382   5.271   1.273   5.095
 1092WAT     H1 3383   5.190   1.316   5.121
 1092WAT     H2 3384   5.312   1.334   5.034
 1093WAT      O 3385   5.117   0.381   3.915
 1093WAT     H1 3386   5.159   0.362   3.831
 1093WAT     H2 3387   5.087   0.295   3.946
 1094WAT      O 3388   3.926   0.940   4.946
 1094WAT     H1 3389   3.963   0.931   5.034
 1094WAT     H2 3390   3.869   0.863   4.936
 1095WAT      O 3391   3.881   0.631   5.337
 1095WAT     H1 3392   3.792   0.627   5.371
 1095WAT     H2 3393   3.935   0.651   5.413
 1096WAT      O 3394   3.744   0.622   4.087
 1096WAT     H1 3395   3.653   0.648   4.069
 1096WAT     H2 3396   3.792   0.649   4.009
 1097WAT      O 3397   3.998   0.528   3.878
 1097WAT     H1 3398   4.069   0.486   3.829
 1097WAT     H2 3399   3.926   0.535   3.814
 1098WAT      O 3400   5.344   0.620   4.208
 1098WAT     H1 3401   5.393   0.597   4.287
 1098WAT     H2 3402   5.324   0.536   4.167
 1099WAT      O 3403   5.277   1.748   4.448
 1099WAT     H1 3404   5.337   1.716   4.380
 1099WAT     H2 3405   5.303   1.700   4.527
 1100WAT      O 3406   4.438   1.547   5.023
 1100WAT     H1 3407   4.414   1.573   4.934
 1100WAT     H2 3408   4.532   1.564   5.028
 1101WAT      O 3409   4.052   1.686   5.175
 1101WAT     H1 3410   3.992   1.672   5.248
 1101WAT     H2 3411   4.051   1.602   5.128
 1102WAT      O 3412   5.332   1.813   4.831
 1102WAT     H1 3413   5.286   1.888   4.793
 1102WAT     H2 3414   5.269   1.741   4.825
 1103WAT      O 3415   4.015   1.422   5.070
 1103WAT     H1 3416   3.942   1.360   5.063
 1103WAT     H2 3417   4.021   1.462   4.983
 1104WAT      O 3418   4.375   1.644   4.748
 1104WAT     H1 3419   4.427   1.582   4.696
 1104WAT     H2 3420   4.440   1.694   4.797
 1105WAT      O 3421   4.649   1.733   4.831
 1105WAT     H1 3422   4.678   1.707   4.743
 1105WAT     H2 3423   4.700   1.677   4.890
 1106WAT      O 3424   5.226   0.177   4.693
 1106WAT     H1 3425   5.270   0.171   4.609
 1106WAT     H2 3426   5.199   0.268   4.700
 1107WAT      O 3427   3.843   1.754   4.391
 1107WAT     H1 3428   3.826   1.691   4.460
 1107WAT     H2 3429   3.756   1.775   4.356
 1108WAT      O 3430   4.559   0.348   4.440
 1108WAT     H1 3431   4.478   0.311   4.406
 1108WAT     H2 3432   4.610   0.273   4.470
 1109WAT      O 3433   4.004   1.623   4.135
 1109WAT     H1 3434   3.951   1.661   4.065
 1109WAT     H2 3435   3.996   1.686   4.207
 1110WAT      O 3436   4.264   1.818   4.023
 1110WAT     H1 3437   4.337   1.790   3.968
 1110WAT     H2 3438   4.289   1.794   4.112
 1111WAT      O 3439   4.180   1.430   4.023
 1111WAT     H1 3440   4.117   1.477   4.078
 1111WAT     H2 3441   4.191   1.345   4.067
 1112WAT      O 3442   4.925   0.835   2.638
 1112WAT     H1 3443   4.917   0.743   2.611
 1112WAT     H2 3444   4.884   0.884   2.567
 1113WAT      O 3445   4.738   1.013   2.826
 1113WAT     H1 3446   4.661   0.965   2.855
 1113WAT     H2 3447   4.803   0.945   2.809
 1114WAT      O 3448   4.140   1.044   2.914
 1114WAT     H1 3449   4.057   1.018   2.954
 1114WAT     H2 3450   4.201   1.051   2.988
 1115WAT      O 3451   5.140   1.453   2.704
 1115WAT     H1 3452   5.094   1.376   2.737
 1115WAT     H2 3453   5.222   1.456   2.755
 1116WAT      O 3454   4.138   1.447   2.934
 1116WAT     H1 3455   4.168   1.358   2.916
 1116WAT     H2 3456   4.212   1.503   2.911
 1117WAT      O 3457   3.981   0.540   2.292
 1117WAT     H1 3458   3.892   0.574   2.282
 1117WAT     H2 3459   4.009   0.520   2.203
 1118WAT      O 3460   3.777   0.800   2.881
 1118WAT     H1 3461   3.834   0.723   2.881
 1118WAT     H2 3462   3.777   0.830   2.790
 1119WAT      O 3463   4.763   1.682   2.666
 1119WAT     H1 3464   4.701   1.727   2.609
 1119WAT     H2 3465   4.849   1.697   2.626
 1120WAT      O 3466   4.682   1.280   2.827
 1120WAT     H1 3467   4.676   1.186   2.811
 1120WAT     H2 3468   4.759   1.289   2.884
 1121WAT      O 3469   3.902   0.341   3.059
 1121WAT     H1 3470   3.884   0.251   3.087
 1121WAT     H2 3471   3.861   0.395   3.127
 1122WAT      O 3472   4.785   0.561   2.850
 1122WAT     H1 3473   4.823   0.474   2.838
 1122WAT     H2 3474   4.776   0.594   2.760
 1123WAT      O 3475   4.199   0.398   2.396
 1123WAT     H1 3476   4.209   0.488   2.426
 1123WAT     H2 3477   4.107   0.393   2.367
 1124WAT      O 3478   5.164   0.310   2.543
 1124WAT     H1 3479   5.246   0.261   2.547
 1124WAT     H2 3480   5.167   0.369   2.618
 1125WAT      O 3481   3.963   0.590   2.920
 1125WAT     H1 3482   4.031   0.617   2.982
 1125WAT     H2 3483   3.932   0.506   2.954
 1126WAT      O 3484   4.383   0.695   2.829
 1126WAT     H1 3485   4.433   0.745   2.893
 1126WAT     H2 3486   4.436   0.617   2.811
 1127WAT      O 3487   4.850   1.170   2.406
 1127WAT     H1 3488   4.788   1.217   2.349
 1127WAT     H2 3489   4.901   1.239   2.447
 1128WAT      O 3490   4.336   1.123   3.073
 1128WAT     H1 3491   4.303   1.186   3.138
 1128WAT     H2 3492   4.354   1.176   2.995
 1129WAT      O 3493   5.187   0.504   2.820
 1129WAT     H1 3494   5.117   0.533   2.878
 1129WAT     H2 3495   5.223   0.585   2.784
 1130WAT      O 3496   4.179   0.330   3.056
 1130WAT     H1 3497   4.213   0.414   3.027
 1130WAT     H2 3498   4.085   0.345   3.068
 1131WAT      O 3499   4.257   1.320   3.255
 1131WAT     H1 3500   4.319   1.387   3.227
 1131WAT     H2 3501   4.171   1.361   3.246
 1132WAT      O 3502   3.787   1.239   2.143
 1132WAT     H1 3503   3.749   1.288   2.070
 1132WAT     H2 3504   3.812   1.306   2.206
 1133WAT      O 3505   5.349   1.466   3.046
 1133WAT     H1 3506   5.281   1.533   3.046
 1133WAT     H2 3507   5.403   1.486   2.970
 1134WAT      O 3508   5.103   1.651   2.918
 1134WAT     H1 3509   5.104   1.610   2.831
 1134WAT     H2 3510   5.047   1.728   2.907
 1135WAT      O 3511   5.232   1.323   2.427
 1135WAT     H1 3512   5.221   1.228   2.439
 1135WAT     H2 3513   5.232   1.359   2.515
 1136WAT      O 3514   5.042   1.141   3.051
 1136WAT     H1 3515   5.084   1.119   2.967
 1136WAT     H2 3516   5.115   1.167   3.108
 1137WAT      O 3517   4.786   0.885   2.362
 1137WAT     H1 3518   4.694   0.879   2.385
 1137WAT     H2 3519   4.801   0.979   2.351
 1138WAT      O 3520   4.785   0.513   2.062
 1138WAT     H1 3521   4.691   0.529   2.071
 1138WAT     H2 3522   4.817   0.584   2.007
 1139WAT      O 3523   5.189   1.042   2.413
 1139WAT     H1 3524   5.127   1.008   2.348
 1139WAT     H2 3525   5.187   0.977   2.484
 1140WAT      O 3526   5.133   0.659   3.154
 1140WAT     H1 3527   5.092   0.742   3.180
 1140WAT     H2 3528   5.060   0.601   3.135
 1141WAT      O 3529   4.347   0.938   2.641
 1141WAT     H1 3530   4.306   0.867   2.591
 1141WAT     H2 3531   4.355   0.904   2.729
 1142WAT      O 3532   4.394   1.307   2.857
 1142WAT     H1 3533   4.364   1.246   2.789
 1142WAT     H2 3534   4.489   1.310   2.846
 1143WAT      O 3535   4.218   0.615   3.019
 1143WAT     H1 3536   4.273   0.626   2.941
 1143WAT     H2 3537   4.270   0.653   3.090
 1144WAT      O 3538   5.202   1.664   3.223
 1144WAT     H1 3539   5.155   1.745   3.204
 1144WAT     H2 3540   5.134   1.599   3.238
 1145WAT      O 3541   4.303   1.280   3.522
 1145WAT     H1 3542   4.213   1.303   3.547
 1145WAT     H2 3543   4.305   1.293   3.427
 1146WAT      O 3544   5.007   0.965   2.113
 1146WAT     H1 3545   5.051   0.882   2.099
 1146WAT     H2 3546   5.078   1.029   2.122
 1147WAT      O 3547   4.185   0.968   3.380
 1147WAT     H1 3548   4.172   1.055   3.417
 1147WAT     H2 3549   4.097   0.933   3.365
 1148WAT      O 3550   4.818   1.459   2.510
 1148WAT     H1 3551   4.862   1.534   2.469
 1148WAT     H2 3552   4.812   1.484   2.603
 1149WAT      O 3553   4.365   1.562   3.600
 1149WAT     H1 3554   4.362   1.602   3.514
 1149WAT     H2 3555   4.349   1.469   3.584
 1150WAT      O 3556   4.017   0.827   2.391
 1150WAT     H1 3557   4.005   0.900   2.329
 1150WAT     H2 3558   3.986   0.750   2.343
 1151WAT      O 3559   3.781   1.145   2.971
 1151WAT     H1 3560   3.788   1.158   2.877
 1151WAT     H2 3561   3.842   1.074   2.991
 1152WAT      O 3562   3.905   1.315   2.612
 1152WAT     H1 3563   3.864   1.329   2.527
 1152WAT     H2 3564   3.994   1.286   2.592
 1153WAT      O 3565   4.887   1.730   3.303
 1153WAT     H1 3566   4.938   1.721   3.383
 1153WAT     H2 3567   4.803   1.764   3.332
 1154WAT      O 3568   5.084   1.758   2.246
 1154WAT     H1 3569   5.069   1.729   2.336
 1154WAT     H2 3570   5.068   1.680   2.192
 1155WAT      O 3571   4.332   1.736   2.424
 1155WAT     H1 3572   4.315   1.644   2.402
 1155WAT     H2 3573   4.247   1.772   2.448
 1156WAT      O 3574   5.055   1.509   2.102
 1156WAT     H1 3575   4.985   1.509   2.036
 1156WAT     H2 3576   5.129   1.467   2.059
 1157WAT      O 3577   5.011   1.672   2.509
 1157WAT     H1 3578   5.057   1.593   2.541
 1157WAT     H2 3579   5.045   1.743   2.564
 1158WAT      O 3580   3.786   1.249   3.225
 1158WAT     H1 3581   3.803   1.202   3.143
 1158WAT     H2 3582   3.833   1.198   3.292
 1159WAT      O 3583   4.692   0.448   3.289
 1159WAT     H1 3584   4.646   0.469   3.370
 1159WAT     H2 3585   4.652   0.367   3.259
 1160WAT      O 3586   5.192   0.571   3.402
 1160WAT     H1 3587   5.107   0.541   3.434
 1160WAT     H2 3588   5.176   0.595   3.311
 1161WAT      O 3589   4.902   0.721   3.612
 1161WAT     H1 3590   4.934   0.637   3.578
 1161WAT     H2 3591   4.981   0.773   3.627
 1162WAT      O 3592   4.467   0.216   2.915
 1162WAT     H1 3593   4.497   0.307   2.907
 1162WAT     H2 3594   4.522   0.167   2.853
 1163WAT      O 3595   4.243   0.674   2.502
 1163WAT     H1 3596   4.220   0.653   2.592
 1163WAT     H2 3597   4.165   0.717   2.467
 1164WAT      O 3598   4.966   0.675   2.362
 1164WAT     H1 3599   4.906   0.747   2.343
 1164WAT     H2 3600   5.020   0.669   2.283
 1165WAT      O 3601   4.487   0.764   3.568
 1165WAT     H1 3602   4.477   0.670   3.553
 1165WAT     H2 3603   4.571   0.786   3.529
 1166WAT      O 3604   4.826   0.538   2.565
 1166WAT     H1 3605   4.866   0.570   2.483
 1166WAT     H2 3606   4.862   0.451   2.576
 1167WAT      O 3607   4.000   0.405   3.384
 1167WAT     H1 3608   3.960   0.490   3.404
 1167WAT     H2 3609   3.931   0.341   3.403
 1168WAT      O 3610   4.657   0.413   3.691
 1168WAT     H1 3611   4.588   0.394   3.754
 1168WAT     H2 3612   4.731   0.442   3.744
 1169WAT      O 3613   3.749   0.592   1.908
 1169WAT     H1 3614   3.740   0.686   1.922
 1169WAT     H2 3615   3.713   0.577   1.820
 1170WAT      O 3616   4.885   0.797   2.974
 1170WAT     H1 3617   4.812   0.848   3.009
 1170WAT     H2 3618   4.845   0.716   2.944
 1171WAT      O 3619   4.529   0.465   2.815
 1171WAT     H1 3620   4.529   0.421   2.730
 1171WAT     H2 3621   4.618   0.497   2.825
 1172WAT      O 3622   4.114   0.453   2.711
 1172WAT     H1 3623   4.080   0.501   2.786
 1172WAT     H2 3624   4.037   0.408   2.675
 1173WAT      O 3625   4.535   0.565   2.114
 1173WAT     H1 3626   4.547   0.561   2.209
 1173WAT     H2 3627   4.496   0.651   2.098
 1174WAT      O 3628   4.931   0.343   2.915
 1174WAT     H1 3629   4.933   0.388   3.000
 1174WAT     H2 3630   4.906   0.253   2.937
 1175WAT      O 3631   4.436   0.796   2.054
 1175WAT     H1 3632   4.379   0.751   1.991
 1175WAT     H2 3633   4.507   0.832   2.000
 1176WAT      O 3634   3.944   1.186   3.441
 1176WAT     H1 3635   3.905   1.122   3.501
 1176WAT     H2 3636   3.975   1.257   3.498
 1177WAT      O 3637   4.559   0.871   2.989
 1177WAT     H1 3638   4.595   0.824   3.064
 1177WAT     H2 3639   4.540   0.958   3.023
 1178WAT      O 3640   3.845   0.345   2.602
 1178WAT     H1 3641   3.817   0.309   2.686
 1178WAT     H2 3642   3.839   0.272   2.541
 1179WAT      O 3643   4.338   0.775   3.221
 1179WAT     H1 3644   4.307   0.863   3.244
 1179WAT     H2 3645   4.433   0.781   3.225
 1180WAT      O 3646   4.190   1.196   2.281
 1180WAT     H1 3647   4.113   1.142   2.265
 1180WAT     H2 3648   4.263   1.144   2.247
 1181WAT      O 3649   5.266   1.095   2.860
 1181WAT     H1 3650   5.338   1.145   2.821
 1181WAT     H2 3651   5.246   1.028   2.796
 1182WAT      O 3652   4.812   0.235   2.274
 1182WAT     H1 3653   4.731   0.185   2.267
 1182WAT     H2 3654   4.793   0.319   2.233
 1183WAT      O 3655   4.805   1.102   3.449
 1183WAT     H1 3656   4.798   1.010   3.423
 1183WAT     H2 3657   4.742   1.112   3.520
 1184WAT      O 3658   5.084   0.672   2.104
 1184WAT     H1 3659   5.173   0.703   2.087
 1184WAT     H2 3660   5.081   0.585   2.065
 1185WAT      O 3661   4.195   1.163   2.645
 1185WAT     H1 3662   4.247   1.082   2.639
 1185WAT     H2 3663   4.150   1.156   2.729
 1186WAT      O 3664   4.684   1.289   2.172
 1186WAT     H1 3665   4.718   1.364   2.122
 1186WAT     H2 3666   4.601   1.320   2.208
 1187WAT      O 3667   3.943   0.859   3.336
 1187WAT     H1 3668   3.907   0.926   3.395
 1187WAT     H2 3669   3.914   0.776   3.373
 1188WAT      O 3670   4.263   0.905   3.624
 1188WAT     H1 3671   4.233   0.920   3.535
 1188WAT     H2 3672   4.341   0.849   3.615
 1189WAT      O 3673   4.798   1.385   3.424
 1189WAT     H1 3674   4.799   1.291   3.402
 1189WAT     H2 3675   4.727   1.393   3.488
 1190WAT      O 3676   5.311   0.803   2.051
 1190WAT     H1 3677   5.303   0.846   1.966
 1190WAT     H2 3678   5.383   0.849   2.094
 1191WAT      O 3679   4.972   1.221   2.708
 1191WAT     H1 3680   5.007   1.162   2.642
 1191WAT     H2 3681   4.883   1.189   2.725
 1192WAT      O 3682   4.580   1.297   2.449
 1192WAT     H1 3683   4.649   1.352   2.487
 1192WAT     H2 3684   4.502   1.352   2.453
 1193WAT      O 3685   3.794   0.859   1.998
 1193WAT     H1 3686   3.881   0.887   2.027
 1193WAT     H2 3687   3.745   0.940   1.987
 1194WAT      O 3688   4.511   0.998   2.410
 1194WAT     H1 3689   4.556   1.079   2.433
 1194WAT     H2 3690   4.476   0.966   2.493
 1195WAT      O 3691   4.741   1.549   3.133
 1195WAT     H1 3692   4.805   1.569   3.201
 1195WAT     H2 3693   4.777   1.473   3.088
 1196WAT      O 3694   4.868   1.349   3.005
 1196WAT     H1 3695   4.933   1.279   3.016
 1196WAT     H2 3696   4.921   1.427   2.987
 1197WAT      O 3697   5.253   1.378   1.977
 1197WAT     H1 3698   5.230   1.306   2.037
 1197WAT     H2 3699   5.214   1.353   1.894
 1198WAT      O 3700   5.046   1.429   3.325
 1198WAT     H1 3701   5.079   1.488   3.393
 1198WAT     H2 3702   4.954   1.416   3.348
 1199WAT      O 3703   3.831   1.780   2.055
 1199WAT     H1 3704   3.867   1.840   1.989
 1199WAT     H2 3705   3.817   1.835   2.132
 1200WAT      O 3706   5.211   1.169   2.144
 1200WAT     H1 3707   5.182   1.215   2.222
 1200WAT     H2 3708   5.291   1.123   2.170
 1201WAT      O 3709   3.829   1.607   3.502
 1201WAT     H1 3710   3.840   1.513   3.488
 1201WAT     H2 3711   3.764   1.633   3.437
 1202WAT      O 3712   4.629   1.434   3.642
 1202WAT     H1 3713   4.597   1.362   3.697
 1202WAT     H2 3714   4.561   1.502   3.650
 1203WAT      O 3715   4.433   1.519   2.137
 1203WAT     H1 3716   4.432   1.592   2.075
 1203WAT     H2 3717   4.341   1.494   2.146
 1204WAT      O 3718   3.993   1.041   2.211
 1204WAT     H1 3719   3.932   1.115   2.212
 1204WAT     H2 3720   4.040   1.050   2.128
 1205WAT      O 3721   4.950   0.457   3.179
 1205WAT     H1 3722   4.987   0.375   3.211
 1205WAT     H2 3723   4.864   0.463   3.220
 1206WAT      O 3724   5.287   0.353   2.259
 1206WAT     H1 3725   5.224   0.363   2.188
 1206WAT     H2 3726   5.237   0.375   2.338
 1207WAT      O 3727   4.731   1.525   2.003
 1207WAT     H1 3728   4.741   1.505   1.910
 1207WAT     H2 3729   4.641   1.499   2.023
 1208WAT      O 3730   4.484   0.581   2.401
 1208WAT     H1 3731   4.413   0.628   2.445
 1208WAT     H2 3732   4.512   0.515   2.465
 1209WAT      O 3733   4.646   0.723   3.201
 1209WAT     H1 3734   4.696   0.770   3.268
 1209WAT     H2 3735   4.660   0.630   3.222
 1210WAT      O 3736   4.887   0.253   2.545
 1210WAT     H1 3737   4.874   0.255   2.450
 1210WAT     H2 3738   4.982   0.258   2.557
 1211WAT      O 3739   4.596   1.777   2.472
 1211WAT     H1 3740   4.621   1.773   2.380
 1211WAT     H2 3741   4.501   1.764   2.472
 1212WAT      O 3742   4.304   0.412   2.139
 1212WAT     H1 3743   4.389   0.455   2.132
 1212WAT     H2 3744   4.267   0.443   2.221
 1213WAT      O 3745   5.196   0.869   2.630
 1213WAT     H1 3746   5.102   0.870   2.647
 1213WAT     H2 3747   5.227   0.790   2.674
 1214WAT      O 3748   4.194   1.037   1.986
 1214WAT     H1 3749   4.271   1.026   2.042
 1214WAT     H2 3750   4.202   0.967   1.921
 1215WAT      O 3751   4.063   0.780   2.054
 1215WAT     H1 3752   4.071   0.685   2.065
 1215WAT     H2 3753   4.153   0.813   2.065
 1216WAT      O 3754   4.143   1.795   2.765
 1216WAT     H1 3755   4.217   1.740   2.792
 1216WAT     H2 3756   4.182   1.882   2.751
 1217WAT      O 3757   3.832   1.402   2.352
 1217WAT     H1 3758   3.739   1.426   2.351
 1217WAT     H2 3759   3.879   1.485   2.340
 1218WAT      O 3760   4.044   1.714   3.683
 1218WAT     H1 3761   4.124   1.746   3.725
 1218WAT     H2 3762   3.993   1.678   3.756
 1219WAT      O 3763   4.455   1.712   1.947
 1219WAT     H1 3764   4.534   1.741   1.902
 1219WAT     H2 3765   4.403   1.669   1.879
 1220WAT      O 3766   4.928   1.324   3.678
 1220WAT     H1 3767   4.867   1.327   3.604
 1220WAT     H2 3768   4.897   1.251   3.732
 1221WAT      O 3769   5.071   1.697   3.539
 1221WAT     H1 3770   5.166   1.689   3.534
 1221WAT     H2 3771   5.056   1.764   3.607
 1222WAT      O 3772   5.360   1.635   2.089
 1222WAT     H1 3773   5.331   1.594   2.008
 1222WAT     H2 3774   5.340   1.728   2.077
 1223WAT      O 3775   3.816   0.962   3.578
 1223WAT     H1 3776   3.866   0.904   3.635
 1223WAT     H2 3777   3.742   0.991   3.632
 1224WAT      O 3778   4.506   1.234   1.933
 1224WAT     H1 3779   4.496   1.173   2.006
 1224WAT     H2 3780   4.490   1.182   1.855
 1225WAT      O 3781   4.521   1.103   3.531
 1225WAT     H1 3782   4.445   1.160   3.523
 1225WAT     H2 3783   4.540   1.074   3.442
 1226WAT      O 3784   4.830   1.141   1.994
 1226WAT     H1 3785   4.775   1.185   2.058
 1226WAT     H2 3786   4.893   1.090   2.046
 1227WAT      O 3787   5.236   1.276   3.587
 1227WAT     H1 3788   5.310   1.310   3.537
 1227WAT     H2 3789   5.159   1.293   3.532
 1228WAT      O 3790   4.019   0.777   3.667
 1228WAT     H1 3791   4.023   0.747   3.758
 1228WAT     H2 3792   4.105   0.817   3.651
 1229WAT      O 3793   4.397   1.037   2.183
 1229WAT     H1 3794   4.439   1.020   2.268
 1229WAT     H2 3795   4.410   0.956   2.134
 1230WAT      O 3796   4.213   0.635   3.464
 1230WAT     H1 3797   4.160   0.585   3.401
 1230WAT     H2 3798   4.280   0.677   3.411
 1231WAT      O 3799   4.648   0.939   1.908
 1231WAT     H1 3800   4.700   0.867   1.872
 1231WAT     H2 3801   4.713   1.003   1.938
 1232WAT      O 3802   5.103   1.081   3.440
 1232WAT     H1 3803   5.145   1.097   3.525
 1232WAT     H2 3804   5.010   1.094   3.457
 1233WAT      O 3805   5.150   0.815   3.641
 1233WAT     H1 3806   5.209   0.740   3.632
 1233WAT     H2 3807   5.168   0.868   3.563
 1234WAT      O 3808   4.262   0.331   3.472
 1234WAT     H1 3809   4.253   0.269   3.400
 1234WAT     H2 3810   4.204   0.404   3.449
 1235WAT      O 3811   4.579   1.076   3.237
 1235WAT     H1 3812   4.621   1.161   3.220
 1235WAT     H2 3813   4.487   1.090   3.215
 1236WAT      O 3814   4.813   0.850   3.376
 1236WAT     H1 3815   4.825   0.790   3.450
 1236WAT     H2 3816   4.899   0.853   3.334
 1237WAT      O 3817   5.047   0.905   3.233
 1237WAT     H1 3818   4.994   0.957   3.173
 1237WAT     H2 3819   5.081   0.968   3.297
 1238WAT      O 3820   4.287   0.644   1.878
 1238WAT     H1 3821   4.267   0.558   1.914
 1238WAT     H2 3822   4.270   0.635   1.784
 1239WAT      O 3823   4.364   1.707   3.349
 1239WAT     H1 3824   4.311   1.779   3.317
 1239WAT     H2 3825   4.390   1.659   3.270
 1240WAT      O 3826   4.490   0.504   3.502
 1240WAT     H1 3827   4.549   0.473   3.570
 1240WAT     H2 3828   4.408   0.457   3.517
 1241WAT      O 3829   4.972   0.465   3.525
 1241WAT     H1 3830   4.903   0.399   3.518
 1241WAT     H2 3831   5.044   0.421   3.569
 1242WAT      O 3832   4.166   0.354   1.877
 1242WAT     H1 3833   4.197   0.355   1.786
 1242WAT     H2 3834   4.240   0.319   1.926
 1243WAT      O 3835   4.650   1.830   3.375
 1243WAT     H1 3836   4.643   1.921   3.406
 1243WAT     H2 3837   4.560   1.799   3.372
 1244WAT      O 3838   4.488   0.248   1.975
 1244WAT     H1 3839   4.454   0.180   1.917
 1244WAT     H2 3840   4.508   0.202   2.057
 1245WAT      O 3841   4.705   1.747   2.137
 1245WAT     H1 3842   4.794   1.781   2.139
 1245WAT     H2 3843   4.708   1.675   2.074
 1246WAT      O 3844   4.069   1.284   1.960
 1246WAT     H1 3845   4.113   1.339   2.026
 1246WAT     H2 3846   4.117   1.202   1.961
 1247WAT      O 3847   3.790   1.563   2.705
 1247WAT     H1 3848   3.823   1.476   2.682
 1247WAT     H2 3849   3.833   1.584   2.788
 1248WAT      O 3850   4.250   1.396   2.471
 1248WAT     H1 3851   4.220   1.384   2.561
 1248WAT     H2 3852   4.239   1.310   2.430
 1249WAT      O 3853   3.839   1.650   2.979
 1249WAT     H1 3854   3.795   1.668   3.062
 1249WAT     H2 3855   3.896   1.726   2.965
 1250WAT      O 3856   3.822   0.901   2.615
 1250WAT     H1 3857   3.757   0.874   2.551
 1250WAT     H2 3858   3.906   0.890   2.570
 1251WAT      O 3859   5.271   1.273   3.218
 1251WAT     H1 3860   5.190   1.316   3.244
 1251WAT     H2 3861   5.312   1.334   3.156
 1252WAT      O 3862   5.117   0.381   2.037
 1252WAT     H1 3863   5.159   0.362   1.953
 1252WAT     H2 3864   5.087   0.295   2.068
 1253WAT      O 3865   3.926   0.940   3.069
 1253WAT     H1 3866   3.963   0.931   3.157
 1253WAT     H2 3867   3.869   0.863   3.059
 1254WAT      O 3868   3.881   0.631   3.460
 1254WAT     H1 3869   3.792   0.627   3.493
 1254WAT     H2 3870   3.935   0.651   3.536
 1255WAT      O 3871   5.250   0.309   3.648
 1255WAT     H1 3872   5.338   0.310   3.686
 1255WAT     H2 3873   5.251   0.235   3.587
 1256WAT      O 3874   3.744   0.622   2.209
 1256WAT     H1 3875   3.653   0.648   2.192
 1256WAT     H2 3876   3.792   0.649   2.131
 1257WAT      O 3877   3.998   0.528   2.000
 1257WAT     H1 3878   4.069   0.486   1.952
 1257WAT     H2 3879   3.926   0.535   1.937
 1258WAT      O 3880   5.344   0.620   2.331
 1258WAT     H1 3881   5.393   0.597   2.409
 1258WAT     H2 3882   5.324   0.536   2.289
 1259WAT      O 3883   5.277   1.748   2.570
 1259WAT     H1 3884   5.337   1.716   2.503
 1259WAT     H2 3885   5.303   1.700   2.649
 1260WAT      O 3886   4.068   1.391   3.585
 1260WAT     H1 3887   4.063   1.354   3.673
 1260WAT     H2 3888   4.081   1.485   3.599
 1261WAT      O 3889   4.438   1.547   3.145
 1261WAT     H1 3890   4.414   1.573   3.057
 1261WAT     H2 3891   4.532   1.564   3.151
 1262WAT      O 3892   4.658   0.193   3.521
 1262WAT     H1 3893   4.652   0.252   3.596
 1262WAT     H2 3894   4.752   0.182   3.506
 1263WAT      O 3895   4.052   1.686   3.297
 1263WAT     H1 3896   3.992   1.672   3.371
 1263WAT     H2 3897   4.051   1.602   3.251
 1264WAT      O 3898   5.332   1.813   2.953
 1264WAT     H1 3899   5.286   1.888   2.916
 1264WAT     H2 3900   5.269   1.741   2.947
 1265WAT      O 3901   4.015   1.422   3.192
 1265WAT     H1 3902   3.942   1.360   3.185
 1265WAT     H2 3903   4.021   1.462   3.105
 1266WAT      O 3904   4.375   1.644   2.871
 1266WAT     H1 3905   4.427   1.582   2.818
 1266WAT     H2 3906   4.440   1.694   2.920
 1267WAT      O 3907   4.649   1.733   2.953
 1267WAT     H1 3908   4.678   1.707   2.866
 1267WAT     H2 3909   4.700   1.677   3.012
 1268WAT      O 3910   5.226   0.177   2.816
 1268WAT     H1 3911   5.270   0.171   2.731
 1268WAT     H2 3912   5.199   0.268   2.823
 1269WAT      O 3913   3.843   1.754   2.513
 1269WAT     H1 3914   3.826   1.691   2.583
 1269WAT     H2 3915   3.756   1.775   2.478
 1270WAT      O 3916   4.559   0.348   2.563
 1270WAT     H1 3917   4.478   0.311   2.528
 1270WAT     H2 3918   4.610   0.273   2.593
 1271WAT      O 3919   4.004   1.623   2.258
 1271WAT     H1 3920   3.951   1.661   2.187
 1271WAT     H2 3921   3.996   1.686   2.330
 1272WAT      O 3922   4.656   1.825   3.690
 1272WAT     H1 3923   4.748   1.801   3.694
 1272WAT     H2 3924   4.654   1.908   3.642
 1273WAT      O 3925   4.264   1.818   2.145
 1273WAT     H1 3926   4.337   1.790   2.090
 1273WAT     H2 3927   4.289   1.794   2.234
 1274WAT      O 3928   4.180   1.430   2.146
 1274WAT     H1 3929   4.117   1.477   2.201
 1274WAT     H2 3930   4.191   1.345   2.189
 1275WAT      O 3931   5.313   1.748   3.672
 1275WAT     H1 3932   5.392   1.698   3.652
 1275WAT     H2 3933   5.342   1.815   3.733
 1276WAT      O 3934   4.925   0.835   0.761
 1276WAT     H1 3935   4.917   0.743   0.734
 1276WAT     H2 3936   4.884   0.884   0.690
 1277WAT      O 3937   4.738   1.013   0.949
 1277WAT     H1 3938   4.661   0.965   0.978
 1277WAT     H2 3939   4.803   0.945   0.931
 1278WAT      O 3940   4.140   1.044   1.037
 1278WAT     H1 3941   4.057   1.018   1.076
 1278WAT     H2 3942   4.201   1.051   1.110
 1279WAT      O 3943   5.140   1.453   0.827
 1279WAT     H1 3944   5.094   1.376   0.860
 1279WAT     H2 3945   5.222   1.456   0.877
 1280WAT      O 3946   4.138   1.447   1.056
 1280WAT     H1 3947   4.168   1.358   1.038
 1280WAT     H2 3948   4.212   1.503   1.033
 1281WAT      O 3949   3.981   0.540   0.415
 1281WAT     H1 3950   3.892   0.574   0.405
 1281WAT     H2 3951   4.009   0.520   0.326
 1282WAT      O 3952   3.777   0.800   1.003
 1282WAT     H1 3953   3.834   0.723   1.003
 1282WAT     H2 3954   3.777   0.830   0.912
 1283WAT      O 3955   4.763   1.682   0.789
 1283WAT     H1 3956   4.701   1.727   0.732
 1283WAT     H2 3957   4.849   1.697   0.749
 1284WAT      O 3958   4.682   1.280   0.949
 1284WAT     H1 3959   4.676   1.186   0.933
 1284WAT     H2 3960   4.759   1.289   1.007
 1285WAT      O 3961   3.902   0.341   1.182
 1285WAT     H1 3962   3.884   0.251   1.210
 1285WAT     H2 3963   3.861   0.395   1.249
 1286WAT      O 3964   4.785   0.561   0.972
 1286WAT     H1 3965   4.823   0.474   0.961
 1286WAT     H2 3966   4.776   0.594   0.883
 1287WAT      O 3967   4.199   0.398   0.518
 1287WAT     H1 3968   4.209   0.488   0.549
 1287WAT     H2 3969   4.107   0.393   0.489
 1288WAT      O 3970   5.164   0.310   0.665
 1288WAT     H1 3971   5.246   0.261   0.670
 1288WAT     H2 3972   5.167   0.369   0.741
 1289WAT      O 3973   3.963   0.590   1.043
 1289WAT     H1 3974   4.031   0.617   1.105
 1289WAT     H2 3975   3.932   0.506   1.076
 1290WAT      O 3976   4.383   0.695   0.952
 1290WAT     H1 3977   4.433   0.745   1.016
 1290WAT     H2 3978   4.436   0.617   0.934
 1291WAT      O 3979   4.850   1.170   0.528
 1291WAT     H1 3980   4.788   1.217   0.472
 1291WAT     H2 3981   4.901   1.239   0.570
 1292WAT      O 3982   4.336   1.123   1.196
 1292WAT     H1 3983   4.303   1.186   1.260
 1292WAT     H2 3984   4.354   1.176   1.118
 1293WAT      O 3985   5.187   0.504   0.943
 1293WAT     H1 3986   5.117   0.533   1.001
 1293WAT     H2 3987   5.223   0.585   0.907
 1294WAT      O 3988   4.179   0.330   1.179
 1294WAT     H1 3989   4.213   0.414   1.149
 1294WAT     H2 3990   4.085   0.345   1.191
 1295WAT      O 3991   4.257   1.320   1.377
 1295WAT     H1 3992   4.319   1.387   1.349
 1295WAT     H2 3993   4.171   1.361   1.368
 1296WAT      O 3994   3.787   1.239   0.265
 1296WAT     H1 3995   3.749   1.288   0.192
 1296WAT     H2 3996   3.812   1.306   0.329
 1297WAT      O 3997   5.349   1.466   1.169
 1297WAT     H1 3998   5.281   1.533   1.168
 1297WAT     H2 3999   5.403   1.486   1.092
 1298WAT      O 4000   5.103   1.651   1.040
 1298WAT     H1 4001   5.104   1.610   0.954
 1298WAT     H2 4002   5.047   1.728   1.030
 1299WAT      O 4003   5.232   1.323   0.549
 1299WAT     H1 4004   5.221   1.228   0.562
 1299WAT     H2 4005   5.232   1.359   0.638
 1300WAT      O 4006   5.042   1.141   1.173
 1300WAT     H1 4007   5.084   1.119   1.090
 1300WAT     H2 4008   5.115   1.167   1.230
 1301WAT      O 4009   4.786   0.885   0.485
 1301WAT     H1 4010   4.694   0.879   0.508
 1301WAT     H2 4011   4.801   0.979   0.474
 1302WAT      O 4012   5.189   1.042   0.535
 1302WAT     H1 4013   5.127   1.008   0.471
 1302WAT     H2 4014   5.187   0.977   0.606
 1303WAT      O 4015   5.133   0.659   1.277
 1303WAT     H1 4016   5.092   0.742   1.302
 1303WAT     H2 4017   5.060   0.601   1.258
 1304WAT      O 4018   4.347   0.938   0.763
 1304WAT     H1 4019   4.306   0.867   0.714
 1304WAT     H2 4020   4.355   0.904   0.852
 1305WAT      O 4021   4.394   1.307   0.980
 1305WAT     H1 4022   4.364   1.246   0.912
 1305WAT     H2 4023   4.489   1.310   0.968
 1306WAT      O 4024   4.218   0.615   1.141
 1306WAT     H1 4025   4.273   0.626   1.064
 1306WAT     H2 4026   4.270   0.653   1.213
 1307WAT      O 4027   5.202   1.664   1.346
 1307WAT     H1 4028   5.155   1.745   1.327
 1307WAT     H2 4029   5.134   1.599   1.361
 1308WAT      O 4030   4.303   1.280   1.645
 1308WAT     H1 4031   4.213   1.303   1.669
 1308WAT     H2 4032   4.305   1.293   1.550
 1309WAT      O 4033   5.007   0.965   0.236
 1309WAT     H1 4034   5.051   0.882   0.221
 1309WAT     H2 4035   5.078   1.029   0.245
 1310WAT      O 4036   4.185   0.968   1.502
 1310WAT     H1 4037   4.172   1.055   1.539
 1310WAT     H2 4038   4.097   0.933   1.488
 1311WAT      O 4039   4.818   1.459   0.633
 1311WAT     H1 4040   4.862   1.534   0.591
 1311WAT     H2 4041   4.812   1.484   0.725
 1312WAT      O 4042   4.365   1.562   1.723
 1312WAT     H1 4043   4.362   1.602   1.636
 1312WAT     H2 4044   4.349   1.469   1.707
 1313WAT      O 4045   4.017   0.827   0.513
 1313WAT     H1 4046   4.005   0.900   0.452
 1313WAT     H2 4047   3.986   0.750   0.465
 1314WAT      O 4048   3.781   1.145   1.094
 1314WAT     H1 4049   3.788   1.158   0.999
 1314WAT     H2 4050   3.842   1.074   1.113
 1315WAT      O 4051   3.905   1.315   0.735
 1315WAT     H1 4052   3.864   1.329   0.650
 1315WAT     H2 4053   3.994   1.286   0.715
 1316WAT      O 4054   4.887   1.730   1.426
 1316WAT     H1 4055   4.938   1.721   1.506
 1316WAT     H2 4056   4.803   1.764   1.455
 1317WAT      O 4057   5.084   1.758   0.368
 1317WAT     H1 4058   5.069   1.729   0.458
 1317WAT     H2 4059   5.068   1.680   0.315
 1318WAT      O 4060   4.332   1.736   0.546
 1318WAT     H1 4061   4.315   1.644   0.525
 1318WAT     H2 4062   4.247   1.772   0.570
 1319WAT      O 4063   5.011   1.672   0.632
 1319WAT     H1 4064   5.057   1.593   0.663
 1319WAT     H2 4065   5.045   1.743   0.686
 1320WAT      O 4066   3.786   1.249   1.348
 1320WAT     H1 4067   3.803   1.202   1.266
 1320WAT     H2 4068   3.833   1.198   1.414
 1321WAT      O 4069   4.692   0.448   1.412
 1321WAT     H1 4070   4.646   0.469   1.493
 1321WAT     H2 4071   4.652   0.367   1.382
 1322WAT      O 4072   5.192   0.571   1.525
 1322WAT     H1 4073   5.107   0.541   1.557
 1322WAT     H2 4074   5.176   0.595   1.434
 1323WAT      O 4075   4.902   0.721   1.735
 1323WAT     H1 4076   4.934   0.637   1.701
 1323WAT     H2 4077   4.981   0.773   1.750
 1324WAT      O 4078   4.467   0.216   1.037
 1324WAT     H1 4079   4.497   0.307   1.029
 1324WAT     H2 4080   4.522   0.167   0.976
 1325WAT      O 4081   4.243   0.674   0.624
 1325WAT     H1 4082   4.220   0.653   0.715
 1325WAT     H2 4083   4.165   0.717   0.590
 1326WAT      O 4084   4.966   0.675   0.484
 1326WAT     H1 4085   4.906   0.747   0.466
 1326WAT     H2 4086   5.020   0.669   0.406
 1327WAT      O 4087   4.487   0.764   1.691
 1327WAT     H1 4088   4.477   0.670   1.676
 1327WAT     H2 4089   4.571   0.786   1.651
 1328WAT      O 4090   4.826   0.538   0.687
 1328WAT     H1 4091   4.866   0.570   0.606
 1328WAT     H2 4092   4.862   0.451   0.699
 1329WAT      O 4093   4.000   0.405   1.506
 1329WAT     H1 4094   3.960   0.490   1.527
 1329WAT     H2 4095   3.931   0.341   1.525
 1330WAT      O 4096   4.657   0.413   1.813
 1330WAT     H1 4097   4.588   0.394   1.877
 1330WAT     H2 4098   4.731   0.442   1.866
 1331WAT      O 4099   4.885   0.797   1.097
 1331WAT     H1 4100   4.812   0.848   1.132
 1331WAT     H2 4101   4.845   0.716   1.067
 1332WAT      O 4102   4.529   0.465   0.937
 1332WAT     H1 4103   4.529   0.421   0.852
 1332WAT     H2 4104   4.618   0.497   0.948
 1333WAT      O 4105   4.114   0.453   0.833
 1333WAT     H1 4106   4.080   0.501   0.909
 1333WAT     H2 4107   4.037   0.408   0.797
 1334WAT      O 4108   4.535   0.565   0.236
 1334WAT     H1 4109   4.547   0.561   0.331
 1334WAT     H2 4110   4.496   0.651   0.221
 1335WAT      O 4111   4.931   0.343   1.038
 1335WAT     H1 4112   4.933   0.388   1.122
 1335WAT     H2 4113   4.906   0.253   1.059
 1336WAT      O 4114   3.944   1.186   1.564
 1336WAT     H1 4115   3.905   1.122   1.624
 1336WAT     H2 4116   3.975   1.257   1.621
 1337WAT      O 4117   4.559   0.871   1.112
 1337WAT     H1 4118   4.595   0.824   1.187
 1337WAT     H2 4119   4.540   0.958   1.146
 1338WAT      O 4120   3.845   0.345   0.725
 1338WAT     H1 4121   3.817   0.309   0.809
 1338WAT     H2 4122   3.839   0.272   0.663
 1339WAT      O 4123   4.338   0.775   1.344
 1339WAT     H1 4124   4.307   0.863   1.366
 1339WAT     H2 4125   4.433   0.781   1.347
 1340WAT      O 4126   4.190   1.196   0.403
 1340WAT     H1 4127   4.113   1.142   0.387
 1340WAT     H2 4128   4.263   1.144   0.370
 1341WAT      O 4129   5.266   1.095   0.983
 1341WAT     H1 4130   5.338   1.145   0.944
 1341WAT     H2 4131   5.246   1.028   0.918
 1342WAT      O 4132   4.812   0.235   0.397
 1342WAT     H1 4133   4.731   0.185   0.389
 1342WAT     H2 4134   4.793   0.319   0.355
 1343WAT      O 4135   4.805   1.102   1.571
 1343WAT     H1 4136   4.798   1.010   1.546
 1343WAT     H2 4137   4.742   1.112   1.643
 1344WAT      O 4138   5.084   0.672   0.227
 1344WAT     H1 4139   5.173   0.703   0.209
 1344WAT     H2 4140   5.081   0.585   0.187
 1345WAT      O 4141   4.195   1.163   0.767
 1345WAT     H1 4142   4.247   1.082   0.762
 1345WAT     H2 4143   4.150   1.156   0.851
 1346WAT      O 4144   4.684   1.289   0.294
 1346WAT     H1 4145   4.718   1.364   0.245
 1346WAT     H2 4146   4.601   1.320   0.331
 1347WAT      O 4147   3.943   0.859   1.458
 1347WAT     H1 4148   3.907   0.926   1.517
 1347WAT     H2 4149   3.914   0.776   1.496
 1348WAT      O 4150   4.263   0.905   1.747
 1348WAT     H1 4151   4.233   0.920   1.657
 1348WAT     H2 4152   4.341   0.849   1.738
 1349WAT      O 4153   4.798   1.385   1.546
 1349WAT     H1 4154   4.799   1.291   1.525
 1349WAT     H2 4155   4.727   1.393   1.610
 1350WAT      O 4156   4.972   1.221   0.831
 1350WAT     H1 4157   5.007   1.162   0.765
 1350WAT     H2 4158   4.883   1.189   0.848
 1351WAT      O 4159   4.580   1.297   0.572
 1351WAT     H1 4160   4.649   1.352   0.610
 1351WAT     H2 4161   4.502   1.352   0.575
 1352WAT      O 4162   4.511   0.998   0.533
 1352WAT     H1 4163   4.556   1.079   0.555
 1352WAT     H2 4164   4.476   0.966   0.616
 1353WAT      O 4165   4.741   1.549   1.256
 1353WAT     H1 4166   4.805   1.569   1.324
 1353WAT     H2 4167   4.777   1.473   1.211
 1354WAT      O 4168   4.868   1.349   1.128
 1354WAT     H1 4169   4.933   1.279   1.139
 1354WAT     H2 4170   4.921   1.427   1.110
 1355WAT      O 4171   5.046   1.429   1.448
 1355WAT     H1 4172   5.079   1.488   1.516
 1355WAT     H2 4173   4.954   1.416   1.471
 1356WAT      O 4174   5.211   1.169   0.266
 1356WAT     H1 4175   5.182   1.215   0.345
 1356WAT     H2 4176   5.291   1.123   0.293
 1357WAT      O 4177   3.829   1.607   1.625
 1357WAT     H1 4178   3.840   1.513   1.611
 1357WAT     H2 4179   3.764   1.633   1.560
 1358WAT      O 4180   4.629   1.434   1.765
 1358WAT     H1 4181   4.597   1.362   1.819
 1358WAT     H2 4182   4.561   1.502   1.772
 1359WAT      O 4183   4.433   1.519   0.259
 1359WAT     H1 4184   4.432   1.592   0.198
 1359WAT     H2 4185   4.341   1.494   0.268
 1360WAT      O 4186   3.993   1.041   0.334
 1360WAT     H1 4187   3.932   1.115   0.335
 1360WAT     H2 4188   4.040   1.050   0.251
 1361WAT      O 4189   4.950   0.457   1.301
 1361WAT     H1 4190   4.987   0.375   1.334
 1361WAT     H2 4191   4.864   0.463   1.343
 1362WAT      O 4192   5.287   0.353   0.382
 1362WAT     H1 4193   5.224   0.363   0.311
 1362WAT     H2 4194   5.237   0.375   0.461
 1363WAT      O 4195   4.484   0.581   0.524
 1363WAT     H1 4196   4.413   0.628   0.568
 1363WAT     H2 4197   4.512   0.515   0.587
 1364WAT      O 4198   4.646   0.723   1.324
 1364WAT     H1 4199   4.696   0.770   1.390
 1364WAT     H2 4200   4.660   0.630   1.344
 1365WAT      O 4201   4.887   0.253   0.668
 1365WAT     H1 4202   4.874   0.255   0.573
 1365WAT     H2 4203   4.982   0.258   0.680
 1366WAT      O 4204   4.596   1.777   0.595
 1366WAT     H1 4205   4.621   1.773   0.503
 1366WAT     H2 4206   4.501   1.764   0.594
 1367WAT      O 4207   4.304   0.412   0.261
 1367WAT     H1 4208   4.389   0.455   0.255
 1367WAT     H2 4209   4.267   0.443   0.344
 1368WAT      O 4210   5.196   0.869   0.752
 1368WAT     H1 4211   5.102   0.870   0.770
 1368WAT     H2 4212   5.227   0.790   0.797
 1369WAT      O 4213   4.063   0.780   0.177
 1369WAT     H1 4214   4.071   0.685   0.188
 1369WAT     H2 4215   4.153   0.813   0.187
 1370WAT      O 4216   4.143   1.795   0.887
 1370WAT     H1 4217   4.217   1.740   0.914
 1370WAT     H2 4218   4.182   1.882   0.873
 1371WAT      O 4219   3.832   1.402   0.475
 1371WAT     H1 4220   3.739   1.426   0.474
 1371WAT     H2 4221   3.879   1.485   0.462
 1372WAT      O 4222   4.044   1.714   1.806
 1372WAT     H1 4223   4.124   1.746   1.847
 1372WAT     H2 4224   3.993   1.678   1.878
 1373WAT      O 4225   4.928   1.324   1.801
 1373WAT     H1 4226   4.867   1.327   1.727
 1373WAT     H2 4227   4.897   1.251   1.854
 1374WAT      O 4228   5.071   1.697   1.662
 1374WAT     H1 4229   5.166   1.689   1.657
 1374WAT     H2 4230   5.056   1.764   1.729
 1375WAT      O 4231   3.816   0.962   1.700
 1375WAT     H1 4232   3.866   0.904   1.758
 1375WAT     H2 4233   3.742   0.991   1.754
 1376WAT      O 4234   4.521   1.103   1.654
 1376WAT     H1 4235   4.445   1.160   1.645
 1376WAT     H2 4236   4.540   1.074   1.564
 1377WAT      O 4237   5.236   1.276   1.709
 1377WAT     H1 4238   5.310   1.310   1.659
 1377WAT     H2 4239   5.159   1.293   1.654
 1378WAT      O 4240   4.019   0.777   1.790
 1378WAT     H1 4241   4.023   0.747   1.881
 1378WAT     H2 4242   4.105   0.817   1.774
 1379WAT      O 4243   4.397   1.037   0.306
 1379WAT     H1 4244   4.439   1.020   0.390
 1379WAT     H2 4245   4.410   0.956   0.256
 1380WAT      O 4246   4.213   0.635   1.587
 1380WAT     H1 4247   4.160   0.585   1.524
 1380WAT     H2 4248   4.280   0.677   1.533
 1381WAT      O 4249   5.103   1.081   1.563
 1381WAT     H1 4250   5.145   1.097   1.648
 1381WAT     H2 4251   5.010   1.094   1.579
 1382WAT      O 4252   5.150   0.815   1.763
 1382WAT     H1 4253   5.209   0.740   1.755
 1382WAT     H2 4254   5.168   0.868   1.686
 1383WAT      O 4255   4.262   0.331   1.595
 1383WAT     H1 4256   4.253   0.269   1.522
 1383WAT     H2 4257   4.204   0.404   1.572
 1384WAT      O 4258   4.579   1.076   1.360
 1384WAT     H1 4259   4.621   1.161   1.343
 1384WAT     H2 4260   4.487   1.090   1.337
 1385WAT      O 4261   4.813   0.850   1.498
 1385WAT     H1 4262   4.825   0.790   1.572
 1385WAT     H2 4263   4.899   0.853   1.456
 1386WAT      O 4264   5.047   0.905   1.356
 1386WAT     H1 4265   4.994   0.957   1.296
 1386WAT     H2 4266   5.081   0.968   1.419
 1387WAT      O 4267   4.364   1.707   1.472
 1387WAT     H1 4268   4.311   1.779   1.440
 1387WAT     H2 4269   4.390   1.659   1.393
 1388WAT      O 4270   4.490   0.504   1.624
 1388WAT     H1 4271   4.549   0.473   1.693
 1388WAT     H2 4272   4.408   0.457   1.640
 1389WAT      O 4273   4.972   0.465   1.647
 1389WAT     H1 4274   4.903   0.399   1.641
 1389WAT     H2 4275   5.044   0.421   1.692
 1390WAT      O 4276   4.650   1.830   1.497
 1390WAT     H1 4277   4.643   1.921   1.528
 1390WAT     H2 4278   4.560   1.799   1.495
 1391WAT      O 4279   4.705   1.747   0.260
 1391WAT     H1 4280   4.794   1.781   0.262
 1391WAT     H2 4281   4.708   1.675   0.197
 1392WAT      O 4282   3.790   1.563   0.828
 1392WAT     H1 4283   3.823   1.476   0.805
 1392WAT     H2 4284   3.833   1.584   0.911
 1393WAT      O 4285   4.250   1.396   0.594
 1393WAT     H1 4286   4.220   1.384   0.684
 1393WAT     H2 4287   4.239   1.310   0.553
 1394WAT      O 4288   3.839   1.650   1.102
 1394WAT     H1 4289   3.795   1.668   1.185
 1394WAT     H2 4290   3.896   1.726   1.087
 1395WAT      O 4291   3.822   0.901   0.737
 1395WAT     H1 4292   3.757   0.874   0.673
 1395WAT     H2 4293   3.906   0.890   0.693
 1396WAT      O 4294   5.271   1.273   1.340
 1396WAT     H1 4295   5.190   1.316   1.366
 1396WAT     H2 4296   5.312   1.334   1.279
 1397WAT      O 4297   3.926   0.940   1.192
 1397WAT     H1 4298   3.963   0.931   1.279
 1397WAT     H2 4299   3.869   0.863   1.182
 1398WAT      O 4300   3.881   0.631   1.582
 1398WAT     H1 4301   3.792   0.627   1.616
 1398WAT     H2 4302   3.935   0.651   1.659
 1399WAT      O 4303   5.250   0.309   1.771
 1399WAT     H1 4304   5.338   0.310   1.809
 1399WAT     H2 4305   5.251   0.235   1.710
 1400WAT      O 4306   3.744   0.622   0.332
 1400WAT     H1 4307   3.653   0.648   0.314
 1400WAT     H2 4308   3.792   0.649   0.254
 1401WAT      O 4309   5.344   0.620   0.453
 1401WAT     H1 4310   5.393   0.597   0.532
 1401WAT     H2 4311   5.324   0.536   0.412
 1402WAT      O 4312   5.277   1.748   0.693
 1402WAT     H1 4313   5.337   1.716   0.625
 1402WAT     H2 4314   5.303   1.700   0.772
 1403WAT      O 4315   4.068   1.391   1.708
 1403WAT     H1 4316   4.063   1.354   1.796
 1403WAT     H2 4317   4.081   1.485   1.722
 1404WAT      O 4318   4.438   1.547   1.268
 1404WAT     H1 4319   4.414   1.573   1.179
 1404WAT     H2 4320   4.532   1.564   1.273
 1405WAT      O 4321   4.658   0.193   1.643
 1405WAT     H1 4322   4.652   0.252   1.718
 1405WAT     H2 4323   4.752   0.182   1.629
 1406WAT      O 4324   4.052   1.686   1.420
 1406WAT     H1 4325   3.992   1.672   1.494
 1406WAT     H2 4326   4.051   1.602   1.373
 1407WAT      O 4327   5.332   1.813   1.076
 1407WAT     H1 4328   5.286   1.888   1.038
 1407WAT     H2 4329   5.269   1.741   1.070
 1408WAT      O 4330   4.015   1.422   1.315
 1408WAT     H1 4331   3.942   1.360   1.308
 1408WAT     H2 4332   4.021   1.462   1.228
 1409WAT      O 4333   4.375   1.644   0.993
 1409WAT     H1 4334   4.427   1.582   0.941
 1409WAT     H2 4335   4.440   1.694   1.042
 1410WAT      O 4336   4.649   1.733   1.076
 1410WAT     H1 4337   4.678   1.707   0.988
 1410WAT     H2 4338   4.700   1.677   1.135
 1411WAT      O 4339   5.226   0.177   0.938
 1411WAT     H1 4340   5.270   0.171   0.854
 1411WAT     H2 4341   5.199   0.268   0.946
 1412WAT      O 4342   3.843   1.754   0.636
 1412WAT     H1 4343   3.826   1.691   0.706
 1412WAT     H2 4344   3.756   1.775   0.601
 1413WAT      O 4345   4.559   0.348   0.685
 1413WAT     H1 4346   4.478   0.311   0.651
 1413WAT     H2 4347   4.610   0.273   0.715
 1414WAT      O 4348   4.004   1.623   0.380
 1414WAT     H1 4349   3.951   1.661   0.310
 1414WAT     H2 4350   3.996   1.686   0.452
 1415WAT      O 4351   4.656   1.825   1.813
 1415WAT     H1 4352   4.748   1.801   1.817
 1415WAT     H2 4353   4.654   1.908   1.765
 1416WAT      O 4354   4.264   1.818   0.268
 1416WAT     H1 4355   4.337   1.790   0.213
 1416WAT     H2 4356   4.289   1.794   0.357
 1417WAT      O 4357   4.180   1.430   0.268
 1417WAT     H1 4358   4.117   1.477   0.323
 1417WAT     H2 4359   4.191   1.345   0.312
 1418WAT      O 4360   5.313   1.748   1.795
 1418WAT     H1 4361   5.392   1.698   1.774
 1418WAT     H2 4362   5.342   1.815   1.856
 1419WAT      O 4363   3.048   4.590   4.516
 1419WAT     H1 4364   3.040   4.498   4.488
 1419WAT     H2 4365   3.006   4.639   4.445
 1420WAT      O 4366   2.861   4.767   4.704
 1420WAT     H1 4367   2.783   4.719   4.733
 1420WAT     H2 4368   2.926   4.699   4.686
 1421WAT      O 4369   2.263   4.799   4.791
 1421WAT     H1 4370   2.179   4.773   4.831
 1421WAT     H2 4371   2.323   4.806   4.865
 1422WAT      O 4372   3.263   5.208   4.582
 1422WAT     H1 4373   3.217   5.131   4.614
 1422WAT     H2 4374   3.344   5.211   4.632
 1423WAT      O 4375   2.261   5.202   4.811
 1423WAT     H1 4376   2.291   5.113   4.793
 1423WAT     H2 4377   2.335   5.258   4.788
 1424WAT      O 4378   2.103   4.295   4.170
 1424WAT     H1 4379   2.015   4.329   4.160
 1424WAT     H2 4380   2.132   4.275   4.081
 1425WAT      O 4381   1.900   4.555   4.758
 1425WAT     H1 4382   1.957   4.478   4.758
 1425WAT     H2 4383   1.900   4.585   4.667
 1426WAT      O 4384   2.805   5.035   4.704
 1426WAT     H1 4385   2.798   4.941   4.688
 1426WAT     H2 4386   2.881   5.044   4.762
 1427WAT      O 4387   2.024   4.096   4.937
 1427WAT     H1 4388   2.006   4.006   4.965
 1427WAT     H2 4389   1.984   4.150   5.004
 1428WAT      O 4390   2.908   4.316   4.727
 1428WAT     H1 4391   2.946   4.228   4.716
 1428WAT     H2 4392   2.898   4.349   4.638
 1429WAT      O 4393   2.321   4.153   4.273
 1429WAT     H1 4394   2.332   4.243   4.304
 1429WAT     H2 4395   2.230   4.148   4.244
 1430WAT      O 4396   3.286   4.065   4.420
 1430WAT     H1 4397   3.368   4.016   4.425
 1430WAT     H2 4398   3.290   4.124   4.496
 1431WAT      O 4399   2.086   4.345   4.798
 1431WAT     H1 4400   2.154   4.372   4.860
 1431WAT     H2 4401   2.054   4.261   4.831
 1432WAT      O 4402   2.505   4.450   4.706
 1432WAT     H1 4403   2.556   4.500   4.770
 1432WAT     H2 4404   2.558   4.372   4.689
 1433WAT      O 4405   3.715   4.267   5.077
 1433WAT     H1 4406   3.645   4.306   5.025
 1433WAT     H2 4407   3.742   4.336   5.137
 1434WAT      O 4408   2.334   3.914   5.133
 1434WAT     H1 4409   2.334   3.966   5.053
 1434WAT     H2 4410   2.251   3.866   5.131
 1435WAT      O 4411   2.972   4.925   4.283
 1435WAT     H1 4412   2.910   4.971   4.227
 1435WAT     H2 4413   3.023   4.994   4.325
 1436WAT      O 4414   2.459   4.878   4.951
 1436WAT     H1 4415   2.425   4.940   5.015
 1436WAT     H2 4416   2.476   4.930   4.873
 1437WAT      O 4417   3.310   4.259   4.698
 1437WAT     H1 4418   3.239   4.288   4.756
 1437WAT     H2 4419   3.346   4.340   4.662
 1438WAT      O 4420   2.302   4.085   4.934
 1438WAT     H1 4421   2.336   4.169   4.904
 1438WAT     H2 4422   2.208   4.100   4.945
 1439WAT      O 4423   2.380   5.075   5.132
 1439WAT     H1 4424   2.442   5.142   5.104
 1439WAT     H2 4425   2.294   5.115   5.123
 1440WAT      O 4426   1.909   4.994   4.020
 1440WAT     H1 4427   1.871   5.042   3.947
 1440WAT     H2 4428   1.935   5.061   4.083
 1441WAT      O 4429   3.472   5.221   4.924
 1441WAT     H1 4430   3.403   5.288   4.923
 1441WAT     H2 4431   3.525   5.241   4.847
 1442WAT      O 4432   3.617   4.204   4.737
 1442WAT     H1 4433   3.522   4.207   4.750
 1442WAT     H2 4434   3.649   4.285   4.775
 1443WAT      O 4435   2.670   3.834   4.566
 1443WAT     H1 4436   2.701   3.778   4.495
 1443WAT     H2 4437   2.577   3.847   4.548
 1444WAT      O 4438   3.355   5.078   4.304
 1444WAT     H1 4439   3.344   4.983   4.317
 1444WAT     H2 4440   3.354   5.114   4.393
 1445WAT      O 4441   3.165   4.896   4.928
 1445WAT     H1 4442   3.207   4.874   4.845
 1445WAT     H2 4443   3.237   4.921   4.985
 1446WAT      O 4444   2.909   4.640   4.240
 1446WAT     H1 4445   2.816   4.634   4.263
 1446WAT     H2 4446   2.924   4.734   4.228
 1447WAT      O 4447   2.907   4.267   3.939
 1447WAT     H1 4448   2.814   4.284   3.948
 1447WAT     H2 4449   2.939   4.339   3.885
 1448WAT      O 4450   3.560   4.736   4.937
 1448WAT     H1 4451   3.477   4.743   4.890
 1448WAT     H2 4452   3.619   4.794   4.890
 1449WAT      O 4453   3.312   4.796   4.290
 1449WAT     H1 4454   3.250   4.763   4.225
 1449WAT     H2 4455   3.310   4.732   4.361
 1450WAT      O 4456   3.256   4.414   5.032
 1450WAT     H1 4457   3.215   4.497   5.057
 1450WAT     H2 4458   3.183   4.356   5.013
 1451WAT      O 4459   2.469   4.693   4.518
 1451WAT     H1 4460   2.429   4.622   4.468
 1451WAT     H2 4461   2.478   4.658   4.607
 1452WAT      O 4462   2.516   5.062   4.734
 1452WAT     H1 4463   2.486   5.001   4.666
 1452WAT     H2 4464   2.611   5.065   4.723
 1453WAT      O 4465   2.341   4.370   4.896
 1453WAT     H1 4466   2.396   4.381   4.819
 1453WAT     H2 4467   2.392   4.408   4.968
 1454WAT      O 4468   2.425   5.035   5.399
 1454WAT     H1 4469   2.336   5.058   5.424
 1454WAT     H2 4470   2.428   5.048   5.305
 1455WAT      O 4471   3.129   4.720   3.991
 1455WAT     H1 4472   3.173   4.637   3.976
 1455WAT     H2 4473   3.201   4.784   4.000
 1456WAT      O 4474   2.308   4.722   5.257
 1456WAT     H1 4475   2.294   4.810   5.294
 1456WAT     H2 4476   2.220   4.688   5.243
 1457WAT      O 4477   2.940   5.214   4.388
 1457WAT     H1 4478   2.984   5.288   4.346
 1457WAT     H2 4479   2.934   5.239   4.480
 1458WAT      O 4480   3.488   3.846   3.822
 1458WAT     H1 4481   3.456   3.855   3.912
 1458WAT     H2 4482   3.564   3.904   3.817
 1459WAT      O 4483   2.139   4.582   4.268
 1459WAT     H1 4484   2.127   4.655   4.207
 1459WAT     H2 4485   2.108   4.505   4.220
 1460WAT      O 4486   1.903   4.899   4.849
 1460WAT     H1 4487   1.911   4.913   4.754
 1460WAT     H2 4488   1.965   4.829   4.868
 1461WAT      O 4489   2.028   5.069   4.490
 1461WAT     H1 4490   1.987   5.084   4.404
 1461WAT     H2 4491   2.117   5.041   4.470
 1462WAT      O 4492   3.623   5.114   5.324
 1462WAT     H1 4493   3.636   5.090   5.232
 1462WAT     H2 4494   3.628   5.031   5.371
 1463WAT      O 4495   3.177   5.264   3.979
 1463WAT     H1 4496   3.108   5.264   3.913
 1463WAT     H2 4497   3.252   5.221   3.936
 1464WAT      O 4498   3.609   4.319   5.420
 1464WAT     H1 4499   3.547   4.370   5.367
 1464WAT     H2 4500   3.577   4.229   5.414
 1465WAT      O 4501   1.909   5.004   5.103
 1465WAT     H1 4502   1.925   4.957   5.021
 1465WAT     H2 4503   1.955   4.953   5.169
 1466WAT      O 4504   2.386   3.917   4.606
 1466WAT     H1 4505   2.342   3.995   4.573
 1466WAT     H2 4506   2.442   3.949   4.677
 1467WAT      O 4507   2.815   4.203   5.167
 1467WAT     H1 4508   2.769   4.224   5.248
 1467WAT     H2 4509   2.775   4.122   5.136
 1468WAT      O 4510   3.315   4.325   5.280
 1468WAT     H1 4511   3.230   4.295   5.312
 1468WAT     H2 4512   3.299   4.350   5.188
 1469WAT      O 4513   2.698   3.879   4.094
 1469WAT     H1 4514   2.635   3.878   4.167
 1469WAT     H2 4515   2.689   3.792   4.055
 1470WAT      O 4516   2.590   3.971   4.792
 1470WAT     H1 4517   2.620   4.062   4.784
 1470WAT     H2 4518   2.645   3.922   4.731
 1471WAT      O 4519   2.365   4.429   4.379
 1471WAT     H1 4520   2.343   4.407   4.470
 1471WAT     H2 4521   2.287   4.472   4.345
 1472WAT      O 4522   3.088   4.430   4.239
 1472WAT     H1 4523   3.028   4.502   4.221
 1472WAT     H2 4524   3.143   4.423   4.161
 1473WAT      O 4525   2.949   4.293   4.442
 1473WAT     H1 4526   2.988   4.325   4.361
 1473WAT     H2 4527   2.985   4.205   4.454
 1474WAT      O 4528   2.122   4.160   5.261
 1474WAT     H1 4529   2.083   4.245   5.282
 1474WAT     H2 4530   2.053   4.096   5.280
 1475WAT      O 4531   1.852   3.952   4.664
 1475WAT     H1 4532   1.824   4.009   4.736
 1475WAT     H2 4533   1.927   3.904   4.701
 1476WAT      O 4534   1.871   4.346   3.785
 1476WAT     H1 4535   1.863   4.441   3.800
 1476WAT     H2 4536   1.836   4.332   3.698
 1477WAT      O 4537   3.007   4.552   4.852
 1477WAT     H1 4538   2.934   4.603   4.886
 1477WAT     H2 4539   2.968   4.471   4.821
 1478WAT      O 4540   2.651   4.220   4.692
 1478WAT     H1 4541   2.651   4.176   4.607
 1478WAT     H2 4542   2.741   4.252   4.703
 1479WAT      O 4543   2.236   4.208   4.588
 1479WAT     H1 4544   2.202   4.256   4.664
 1479WAT     H2 4545   2.160   4.163   4.552
 1480WAT      O 4546   2.657   4.320   3.991
 1480WAT     H1 4547   2.669   4.316   4.086
 1480WAT     H2 4548   2.619   4.406   3.976
 1481WAT      O 4549   3.054   4.098   4.793
 1481WAT     H1 4550   3.055   4.143   4.877
 1481WAT     H2 4551   3.029   4.008   4.814
 1482WAT      O 4552   2.559   4.551   3.931
 1482WAT     H1 4553   2.502   4.506   3.868
 1482WAT     H2 4554   2.629   4.587   3.878
 1483WAT      O 4555   2.066   4.941   5.319
 1483WAT     H1 4556   2.028   4.877   5.379
 1483WAT     H2 4557   2.097   5.011   5.376
 1484WAT      O 4558   2.681   4.626   4.867
 1484WAT     H1 4559   2.718   4.578   4.941
 1484WAT     H2 4560   2.662   4.713   4.901
 1485WAT      O 4561   1.968   4.100   4.480
 1485WAT     H1 4562   1.939   4.064   4.563
 1485WAT     H2 4563   1.961   4.027   4.418
 1486WAT      O 4564   2.460   4.530   5.099
 1486WAT     H1 4565   2.430   4.618   5.121
 1486WAT     H2 4566   2.556   4.536   5.102
 1487WAT      O 4567   2.313   4.951   4.158
 1487WAT     H1 4568   2.236   4.897   4.142
 1487WAT     H2 4569   2.386   4.899   4.124
 1488WAT      O 4570   3.389   4.850   4.738
 1488WAT     H1 4571   3.461   4.900   4.698
 1488WAT     H2 4572   3.369   4.782   4.673
 1489WAT      O 4573   2.935   3.990   4.152
 1489WAT     H1 4574   2.854   3.940   4.144
 1489WAT     H2 4575   2.916   4.074   4.110
 1490WAT      O 4576   2.927   4.857   5.326
 1490WAT     H1 4577   2.920   4.765   5.301
 1490WAT     H2 4578   2.864   4.867   5.398
 1491WAT      O 4579   3.206   4.427   3.981
 1491WAT     H1 4580   3.295   4.458   3.964
 1491WAT     H2 4581   3.204   4.340   3.942
 1492WAT      O 4582   2.317   4.917   4.522
 1492WAT     H1 4583   2.369   4.837   4.517
 1492WAT     H2 4584   2.272   4.911   4.606
 1493WAT      O 4585   2.806   5.044   4.049
 1493WAT     H1 4586   2.840   5.118   4.000
 1493WAT     H2 4587   2.723   5.075   4.086
 1494WAT      O 4588   2.066   4.614   5.213
 1494WAT     H1 4589   2.030   4.681   5.272
 1494WAT     H2 4590   2.036   4.531   5.250
 1495WAT      O 4591   2.920   5.140   5.301
 1495WAT     H1 4592   2.922   5.046   5.279
 1495WAT     H2 4593   2.850   5.148   5.365
 1496WAT      O 4594   3.434   4.558   3.928
 1496WAT     H1 4595   3.425   4.601   3.843
 1496WAT     H2 4596   3.506   4.604   3.972
 1497WAT      O 4597   3.541   4.804   5.236
 1497WAT     H1 4598   3.469   4.863   5.216
 1497WAT     H2 4599   3.594   4.803   5.156
 1498WAT      O 4600   3.536   5.243   4.201
 1498WAT     H1 4601   3.472   5.178   4.229
 1498WAT     H2 4602   3.498   5.284   4.123
 1499WAT      O 4603   3.094   4.976   4.586
 1499WAT     H1 4604   3.130   4.916   4.520
 1499WAT     H2 4605   3.006   4.944   4.603
 1500WAT      O 4606   2.703   5.052   4.326
 1500WAT     H1 4607   2.772   5.107   4.365
 1500WAT     H2 4608   2.624   5.107   4.330
 1501WAT      O 4609   1.917   4.614   3.876
 1501WAT     H1 4610   2.004   4.642   3.904
 1501WAT     H2 4611   1.868   4.695   3.864
 1502WAT      O 4612   2.633   4.753   4.288
 1502WAT     H1 4613   2.679   4.834   4.310
 1502WAT     H2 4614   2.598   4.721   4.371
 1503WAT      O 4615   2.864   5.304   5.011
 1503WAT     H1 4616   2.928   5.324   5.078
 1503WAT     H2 4617   2.900   5.228   4.965
 1504WAT      O 4618   2.223   3.787   4.335
 1504WAT     H1 4619   2.211   3.786   4.430
 1504WAT     H2 4620   2.141   3.821   4.300
 1505WAT      O 4621   2.991   5.104   4.882
 1505WAT     H1 4622   3.055   5.034   4.894
 1505WAT     H2 4623   3.043   5.182   4.864
 1506WAT      O 4624   3.375   5.133   3.855
 1506WAT     H1 4625   3.353   5.061   3.914
 1506WAT     H2 4626   3.336   5.108   3.771
 1507WAT      O 4627   3.168   5.184   5.203
 1507WAT     H1 4628   3.202   5.243   5.271
 1507WAT     H2 4629   3.076   5.171   5.226
 1508WAT      O 4630   1.923   3.963   5.281
 1508WAT     H1 4631   1.852   3.983   5.342
 1508WAT     H2 4632   1.965   3.885   5.318
 1509WAT      O 4633   3.334   4.924   4.021
 1509WAT     H1 4634   3.305   4.970   4.100
 1509WAT     H2 4635   3.413   4.878   4.048
 1510WAT      O 4636   1.952   5.362   5.380
 1510WAT     H1 4637   1.963   5.268   5.366
 1510WAT     H2 4638   1.887   5.388   5.315
 1511WAT      O 4639   2.555   5.274   4.014
 1511WAT     H1 4640   2.554   5.347   3.952
 1511WAT     H2 4641   2.463   5.249   4.023
 1512WAT      O 4642   2.115   4.796   4.088
 1512WAT     H1 4643   2.055   4.870   4.089
 1512WAT     H2 4644   2.163   4.805   4.006
 1513WAT      O 4645   3.073   4.212   5.056
 1513WAT     H1 4646   3.110   4.130   5.089
 1513WAT     H2 4647   2.987   4.218   5.098
 1514WAT      O 4648   3.409   4.108   4.137
 1514WAT     H1 4649   3.346   4.118   4.066
 1514WAT     H2 4650   3.360   4.130   4.216
 1515WAT      O 4651   2.854   5.280   3.880
 1515WAT     H1 4652   2.864   5.259   3.787
 1515WAT     H2 4653   2.764   5.254   3.901
 1516WAT      O 4654   2.606   4.336   4.279
 1516WAT     H1 4655   2.535   4.382   4.323
 1516WAT     H2 4656   2.635   4.270   4.342
 1517WAT      O 4657   2.769   4.478   5.078
 1517WAT     H1 4658   2.819   4.525   5.145
 1517WAT     H2 4659   2.783   4.385   5.099
 1518WAT      O 4660   3.009   4.008   4.422
 1518WAT     H1 4661   2.997   4.010   4.328
 1518WAT     H2 4662   3.104   4.013   4.434
 1519WAT      O 4663   2.427   4.166   4.016
 1519WAT     H1 4664   2.511   4.210   4.009
 1519WAT     H2 4665   2.390   4.198   4.099
 1520WAT      O 4666   3.489   4.099   5.163
 1520WAT     H1 4667   3.439   4.173   5.197
 1520WAT     H2 4668   3.571   4.138   5.131
 1521WAT      O 4669   3.319   4.624   4.507
 1521WAT     H1 4670   3.225   4.625   4.525
 1521WAT     H2 4671   3.350   4.545   4.552
 1522WAT      O 4672   2.316   4.792   3.863
 1522WAT     H1 4673   2.393   4.781   3.920
 1522WAT     H2 4674   2.324   4.722   3.798
 1523WAT      O 4675   2.186   4.535   3.932
 1523WAT     H1 4676   2.194   4.440   3.943
 1523WAT     H2 4677   2.275   4.568   3.942
 1524WAT      O 4678   1.955   5.157   4.229
 1524WAT     H1 4679   1.862   5.181   4.229
 1524WAT     H2 4680   2.001   5.239   4.217
 1525WAT      O 4681   2.629   4.989   3.811
 1525WAT     H1 4682   2.618   4.928   3.883
 1525WAT     H2 4683   2.612   4.937   3.732
 1526WAT      O 4684   2.644   4.858   5.409
 1526WAT     H1 4685   2.567   4.915   5.400
 1526WAT     H2 4686   2.662   4.829   5.319
 1527WAT      O 4687   2.953   4.896   3.871
 1527WAT     H1 4688   2.898   4.940   3.936
 1527WAT     H2 4689   3.015   4.845   3.924
 1528WAT      O 4690   2.520   4.791   4.061
 1528WAT     H1 4691   2.562   4.775   4.145
 1528WAT     H2 4692   2.532   4.710   4.011
 1529WAT      O 4693   2.336   4.389   5.342
 1529WAT     H1 4694   2.283   4.340   5.279
 1529WAT     H2 4695   2.403   4.432   5.288
 1530WAT      O 4696   2.771   4.694   3.786
 1530WAT     H1 4697   2.823   4.622   3.749
 1530WAT     H2 4698   2.836   4.758   3.816
 1531WAT      O 4699   3.226   4.836   5.318
 1531WAT     H1 4700   3.267   4.852   5.403
 1531WAT     H2 4701   3.132   4.849   5.334
 1532WAT      O 4702   2.385   4.086   5.349
 1532WAT     H1 4703   2.375   4.024   5.277
 1532WAT     H2 4704   2.327   4.159   5.327
 1533WAT      O 4705   2.661   3.942   5.053
 1533WAT     H1 4706   2.616   3.944   4.968
 1533WAT     H2 4707   2.598   3.902   5.112
 1534WAT      O 4708   2.702   4.831   5.115
 1534WAT     H1 4709   2.744   4.916   5.098
 1534WAT     H2 4710   2.610   4.845   5.092
 1535WAT      O 4711   2.935   4.604   5.253
 1535WAT     H1 4712   2.947   4.545   5.327
 1535WAT     H2 4713   3.021   4.608   5.211
 1536WAT      O 4714   3.169   4.660   5.111
 1536WAT     H1 4715   3.117   4.712   5.051
 1536WAT     H2 4716   3.204   4.723   5.174
 1537WAT      O 4717   2.409   4.399   3.755
 1537WAT     H1 4718   2.389   4.312   3.792
 1537WAT     H2 4719   2.392   4.390   3.662
 1538WAT      O 4720   3.157   3.880   4.008
 1538WAT     H1 4721   3.185   3.796   4.044
 1538WAT     H2 4722   3.080   3.903   4.060
 1539WAT      O 4723   2.289   4.109   3.754
 1539WAT     H1 4724   2.319   4.109   3.663
 1539WAT     H2 4725   2.363   4.074   3.804
 1540WAT      O 4726   2.611   4.003   3.853
 1540WAT     H1 4727   2.576   3.935   3.795
 1540WAT     H2 4728   2.631   3.957   3.934
 1541WAT      O 4729   2.191   5.039   3.837
 1541WAT     H1 4730   2.235   5.093   3.903
 1541WAT     H2 4731   2.240   4.957   3.838
 1542WAT      O 4732   1.913   5.318   4.583
 1542WAT     H1 4733   1.946   5.231   4.559
 1542WAT     H2 4734   1.956   5.339   4.666
 1543WAT      O 4735   2.372   5.151   4.349
 1543WAT     H1 4736   2.342   5.139   4.439
 1543WAT     H2 4737   2.362   5.065   4.308
 1544WAT      O 4738   3.525   5.355   5.285
 1544WAT     H1 4739   3.465   5.361   5.211
 1544WAT     H2 4740   3.538   5.261   5.298
 1545WAT      O 4741   3.649   5.129   3.819
 1545WAT     H1 4742   3.566   5.136   3.866
 1545WAT     H2 4743   3.667   5.218   3.789
 1546WAT      O 4744   3.595   4.804   4.069
 1546WAT     H1 4745   3.671   4.861   4.080
 1546WAT     H2 4746   3.596   4.747   4.146
 1547WAT      O 4747   1.945   4.656   4.492
 1547WAT     H1 4748   1.879   4.629   4.428
 1547WAT     H2 4749   2.029   4.645   4.447
 1548WAT      O 4750   3.696   4.889   4.554
 1548WAT     H1 4751   3.733   4.811   4.513
 1548WAT     H2 4752   3.760   4.958   4.536
 1549WAT      O 4753   3.394   5.027   5.095
 1549WAT     H1 4754   3.312   5.070   5.121
 1549WAT     H2 4755   3.435   5.089   5.034
 1550WAT      O 4756   3.600   4.833   3.785
 1550WAT     H1 4757   3.628   4.924   3.772
 1550WAT     H2 4758   3.581   4.827   3.879
 1551WAT      O 4759   3.240   4.135   3.915
 1551WAT     H1 4760   3.282   4.117   3.831
 1551WAT     H2 4761   3.209   4.050   3.946
 1552WAT      O 4762   3.590   4.627   4.284
 1552WAT     H1 4763   3.552   4.550   4.241
 1552WAT     H2 4764   3.517   4.665   4.333
 1553WAT      O 4765   2.049   4.694   4.946
 1553WAT     H1 4766   2.085   4.686   5.034
 1553WAT     H2 4767   1.992   4.618   4.936
 1554WAT      O 4768   3.529   4.541   5.248
 1554WAT     H1 4769   3.506   4.518   5.158
 1554WAT     H2 4770   3.555   4.633   5.243
 1555WAT      O 4771   2.004   4.386   5.337
 1555WAT     H1 4772   1.914   4.382   5.371
 1555WAT     H2 4773   2.058   4.405   5.413
 1556WAT      O 4774   1.866   4.377   4.087
 1556WAT     H1 4775   1.776   4.403   4.069
 1556WAT     H2 4776   1.915   4.404   4.009
 1557WAT      O 4777   3.517   4.449   4.614
 1557WAT     H1 4778   3.570   4.400   4.551
 1557WAT     H2 4779   3.576   4.463   4.689
 1558WAT      O 4780   3.535   4.458   4.967
 1558WAT     H1 4781   3.440   4.454   4.978
 1558WAT     H2 4782   3.553   4.549   4.943
 1559WAT      O 4783   2.121   4.283   3.878
 1559WAT     H1 4784   2.192   4.240   3.829
 1559WAT     H2 4785   2.049   4.289   3.814
 1560WAT      O 4786   2.085   3.888   3.782
 1560WAT     H1 4787   2.158   3.942   3.813
 1560WAT     H2 4788   2.113   3.861   3.694
 1561WAT      O 4789   3.466   4.375   4.208
 1561WAT     H1 4790   3.516   4.352   4.287
 1561WAT     H2 4791   3.446   4.291   4.167
 1562WAT      O 4792   2.054   3.813   4.772
 1562WAT     H1 4793   2.119   3.758   4.728
 1562WAT     H2 4794   2.096   3.839   4.854
 1563WAT      O 4795   3.609   4.239   4.462
 1563WAT     H1 4796   3.598   4.223   4.556
 1563WAT     H2 4797   3.685   4.186   4.437
 1564WAT      O 4798   3.444   3.832   5.108
 1564WAT     H1 4799   3.508   3.894   5.144
 1564WAT     H2 4800   3.459   3.836   5.013
 1565WAT      O 4801   3.698   4.022   3.786
 1565WAT     H1 4802   3.791   4.008   3.765
 1565WAT     H2 4803   3.696   4.030   3.881
 1566WAT      O 4804   3.705   4.099   4.048
 1566WAT     H1 4805   3.626   4.092   4.101
 1566WAT     H2 4806   3.726   4.192   4.047
 1567WAT      O 4807   2.030   3.829   5.046
 1567WAT     H1 4808   1.995   3.874   5.123
 1567WAT     H2 4809   1.996   3.739   5.054
 1568WAT      O 4810   2.560   5.301   5.023
 1568WAT     H1 4811   2.536   5.328   4.934
 1568WAT     H2 4812   2.654   5.318   5.028
 1569WAT      O 4813   3.045   3.913   5.362
 1569WAT     H1 4814   3.106   3.945   5.296
 1569WAT     H2 4815   3.099   3.865   5.424
 1570WAT      O 4816   2.097   3.781   5.374
 1570WAT     H1 4817   2.152   3.763   5.297
 1570WAT     H2 4818   2.103   3.702   5.427
 1571WAT      O 4819   3.119   3.770   4.995
 1571WAT     H1 4820   3.031   3.803   4.975
 1571WAT     H2 4821   3.108   3.723   5.077
 1572WAT      O 4822   3.209   3.990   5.133
 1572WAT     H1 4823   3.177   3.909   5.095
 1572WAT     H2 4824   3.304   3.986   5.121
 1573WAT      O 4825   2.137   5.177   5.070
 1573WAT     H1 4826   2.065   5.115   5.063
 1573WAT     H2 4827   2.143   5.216   4.983
 1574WAT      O 4828   2.893   3.861   4.889
 1574WAT     H1 4829   2.815   3.909   4.917
 1574WAT     H2 4830   2.864   3.771   4.878
 1575WAT      O 4831   3.349   3.932   4.693
 1575WAT     H1 4832   3.393   3.926   4.609
 1575WAT     H2 4833   3.322   4.023   4.700
 1576WAT      O 4834   3.535   3.895   4.494
 1576WAT     H1 4835   3.529   3.800   4.480
 1576WAT     H2 4836   3.613   3.906   4.549
 1577WAT      O 4837   2.028   3.892   4.141
 1577WAT     H1 4838   2.104   3.903   4.084
 1577WAT     H2 4839   1.982   3.976   4.136
 1578WAT      O 4840   2.682   4.103   4.440
 1578WAT     H1 4841   2.601   4.066   4.406
 1578WAT     H2 4842   2.732   4.028   4.470
 1579WAT      O 4843   3.132   3.770   4.564
 1579WAT     H1 4844   3.192   3.827   4.611
 1579WAT     H2 4845   3.058   3.826   4.542
 1580WAT      O 4846   3.447   3.810   4.091
 1580WAT     H1 4847   3.466   3.900   4.118
 1580WAT     H2 4848   3.368   3.787   4.141
 1581WAT      O 4849   2.265   3.945   3.995
 1581WAT     H1 4850   2.318   3.866   3.982
 1581WAT     H2 4851   2.328   4.012   4.018
 1582WAT      O 4852   2.484   3.918   4.300
 1582WAT     H1 4853   2.421   3.848   4.317
 1582WAT     H2 4854   2.430   3.994   4.279
 1583WAT      O 4855   2.302   5.185   4.023
 1583WAT     H1 4856   2.239   5.231   4.078
 1583WAT     H2 4857   2.314   5.100   4.067
 1584WAT      O 4858   3.048   4.590   2.638
 1584WAT     H1 4859   3.040   4.498   2.611
 1584WAT     H2 4860   3.006   4.639   2.567
 1585WAT      O 4861   2.861   4.767   2.826
 1585WAT     H1 4862   2.783   4.719   2.855
 1585WAT     H2 4863   2.926   4.699   2.809
 1586WAT      O 4864   2.263   4.799   2.914
 1586WAT     H1 4865   2.179   4.773   2.954
 1586WAT     H2 4866   2.323   4.806   2.988
 1587WAT      O 4867   3.263   5.208   2.704
 1587WAT     H1 4868   3.217   5.131   2.737
 1587WAT     H2 4869   3.344   5.211   2.755
 1588WAT      O 4870   2.261   5.202   2.934
 1588WAT     H1 4871   2.291   5.113   2.916
 1588WAT     H2 4872   2.335   5.258   2.911
 1589WAT      O 4873   2.103   4.295   2.292
 1589WAT     H1 4874   2.015   4.329   2.282
 1589WAT     H2 4875   2.132   4.275   2.203
 1590WAT      O 4876   1.900   4.555   2.881
 1590WAT     H1 4877   1.957   4.478   2.881
 1590WAT     H2 4878   1.900   4.585   2.790
 1591WAT      O 4879   2.805   5.035   2.827
 1591WAT     H1 4880   2.798   4.941   2.811
 1591WAT     H2 4881   2.881   5.044   2.884
 1592WAT      O 4882   2.024   4.096   3.059
 1592WAT     H1 4883   2.006   4.006   3.087
 1592WAT     H2 4884   1.984   4.150   3.127
 1593WAT      O 4885   2.908   4.316   2.850
 1593WAT     H1 4886   2.946   4.228   2.838
 1593WAT     H2 4887   2.898   4.349   2.760
 1594WAT      O 4888   2.321   4.153   2.396
 1594WAT     H1 4889   2.332   4.243   2.426
 1594WAT     H2 4890   2.230   4.148   2.367
 1595WAT      O 4891   3.286   4.065   2.543
 1595WAT     H1 4892   3.368   4.016   2.547
 1595WAT     H2 4893   3.290   4.124   2.618
 1596WAT      O 4894   2.086   4.345   2.920
 1596WAT     H1 4895   2.154   4.372   2.982
 1596WAT     H2 4896   2.054   4.261   2.954
 1597WAT      O 4897   2.505   4.450   2.829
 1597WAT     H1 4898   2.556   4.500   2.893
 1597WAT     H2 4899   2.558   4.372   2.811
 1598WAT      O 4900   3.715   4.267   3.199
 1598WAT     H1 4901   3.645   4.306   3.147
 1598WAT     H2 4902   3.742   4.336   3.260
 1599WAT      O 4903   2.334   3.914   3.256
 1599WAT     H1 4904   2.334   3.966   3.175
 1599WAT     H2 4905   2.251   3.866   3.253
 1600WAT      O 4906   2.972   4.925   2.406
 1600WAT     H1 4907   2.910   4.971   2.349
 1600WAT     H2 4908   3.023   4.994   2.447
 1601WAT      O 4909   2.459   4.878   3.073
 1601WAT     H1 4910   2.425   4.940   3.138
 1601WAT     H2 4911   2.476   4.930   2.995
 1602WAT      O 4912   3.310   4.259   2.820
 1602WAT     H1 4913   3.239   4.288   2.878
 1602WAT     H2 4914   3.346   4.340   2.784
 1603WAT      O 4915   2.302   4.085   3.056
 1603WAT     H1 4916   2.336   4.169   3.027
 1603WAT     H2 4917   2.208   4.100   3.068
 1604WAT      O 4918   2.380   5.075   3.255
 1604WAT     H1 4919   2.442   5.142   3.227
 1604WAT     H2 4920   2.294   5.115   3.246
 1605WAT      O 4921   1.909   4.994   2.143
 1605WAT     H1 4922   1.871   5.042   2.070
 1605WAT     H2 4923   1.935   5.061   2.206
 1606WAT      O 4924   3.472   5.221   3.046
 1606WAT     H1 4925   3.403   5.288   3.046
 1606WAT     H2 4926   3.525   5.241   2.970
 1607WAT      O 4927   3.617   4.204   2.859
 1607WAT     H1 4928   3.522   4.207   2.872
 1607WAT     H2 4929   3.649   4.285   2.898
 1608WAT      O 4930   2.670   3.834   2.689
 1608WAT     H1 4931   2.701   3.778   2.617
 1608WAT     H2 4932   2.577   3.847   2.671
 1609WAT      O 4933   3.355   5.078   2.427
 1609WAT     H1 4934   3.344   4.983   2.439
 1609WAT     H2 4935   3.354   5.114   2.515
 1610WAT      O 4936   3.165   4.896   3.051
 1610WAT     H1 4937   3.207   4.874   2.967
 1610WAT     H2 4938   3.237   4.921   3.108
 1611WAT      O 4939   2.909   4.640   2.362
 1611WAT     H1 4940   2.816   4.634   2.385
 1611WAT     H2 4941   2.924   4.734   2.351
 1612WAT      O 4942   2.907   4.267   2.062
 1612WAT     H1 4943   2.814   4.284   2.071
 1612WAT     H2 4944   2.939   4.339   2.007
 1613WAT      O 4945   3.560   4.736   3.060
 1613WAT     H1 4946   3.477   4.743   3.012
 1613WAT     H2 4947   3.619   4.794   3.013
 1614WAT      O 4948   3.312   4.796   2.413
 1614WAT     H1 4949   3.250   4.763   2.348
 1614WAT     H2 4950   3.310   4.732   2.484
 1615WAT      O 4951   3.256   4.414   3.154
 1615WAT     H1 4952   3.215   4.497   3.180
 1615WAT     H2 4953   3.183   4.356   3.135
 1616WAT      O 4954   2.469   4.693   2.641
 1616WAT     H1 4955   2.429   4.622   2.591
 1616WAT     H2 4956   2.478   4.658   2.729
 1617WAT      O 4957   2.516   5.062   2.857
 1617WAT     H1 4958   2.486   5.001   2.789
 1617WAT     H2 4959   2.611   5.065   2.846
 1618WAT      O 4960   2.341   4.370   3.019
 1618WAT     H1 4961   2.396   4.381   2.941
 1618WAT     H2 4962   2.392   4.408   3.090
 1619WAT      O 4963   2.425   5.035   3.522
 1619WAT     H1 4964   2.336   5.058   3.547
 1619WAT     H2 4965   2.428   5.048   3.427
 1620WAT      O 4966   3.129   4.720   2.113
 1620WAT     H1 4967   3.173   4.637   2.099
 1620WAT     H2 4968   3.201   4.784   2.122
 1621WAT      O 4969   2.308   4.722   3.380
 1621WAT     H1 4970   2.294   4.810   3.417
 1621WAT     H2 4971   2.220   4.688   3.365
 1622WAT      O 4972   2.940   5.214   2.510
 1622WAT     H1 4973   2.984   5.288   2.469
 1622WAT     H2 4974   2.934   5.239   2.603
 1623WAT      O 4975   2.488   5.317   3.600
 1623WAT     H1 4976   2.485   5.357   3.514
 1623WAT     H2 4977   2.472   5.224   3.584
 1624WAT      O 4978   3.488   3.846   1.945
 1624WAT     H1 4979   3.456   3.855   2.035
 1624WAT     H2 4980   3.564   3.904   1.940
 1625WAT      O 4981   2.139   4.582   2.391
 1625WAT     H1 4982   2.127   4.655   2.329
 1625WAT     H2 4983   2.108   4.505   2.343
 1626WAT      O 4984   1.903   4.899   2.971
 1626WAT     H1 4985   1.911   4.913   2.877
 1626WAT     H2 4986   1.965   4.829   2.991
 1627WAT      O 4987   2.028   5.069   2.612
 1627WAT     H1 4988   1.987   5.084   2.527
 1627WAT     H2 4989   2.117   5.041   2.592
 1628WAT      O 4990   3.623   5.114   3.446
 1628WAT     H1 4991   3.636   5.090   3.354
 1628WAT     H2 4992   3.628   5.031   3.493
 1629WAT      O 4993   3.177   5.264   2.102
 1629WAT     H1 4994   3.108   5.264   2.036
 1629WAT     H2 4995   3.252   5.221   2.059
 1630WAT      O 4996   3.609   4.319   3.543
 1630WAT     H1 4997   3.547   4.370   3.490
 1630WAT     H2 4998   3.577   4.229   3.537
 1631WAT      O 4999   1.909   5.004   3.225
 1631WAT     H1 5000   1.925   4.957   3.143
 1631WAT     H2 5001   1.955   4.953   3.292
 1632WAT      O 5002   2.386   3.917   2.729
 1632WAT     H1 5003   2.342   3.995   2.696
 1632WAT     H2 5004   2.442   3.949   2.800
 1633WAT      O 5005   2.815   4.203   3.289
 1633WAT     H1 5006   2.769   4.224   3.370
 1633WAT     H2 5007   2.775   4.122   3.259
 1634WAT      O 5008   3.315   4.325   3.402
 1634WAT     H1 5009   3.230   4.295   3.434
 1634WAT     H2 5010   3.299   4.350   3.311
 1635WAT      O 5011   3.024   4.475   3.612
 1635WAT     H1 5012   3.057   4.392   3.578
 1635WAT     H2 5013   3.103   4.528   3.627
 1636WAT      O 5014   2.698   3.879   2.217
 1636WAT     H1 5015   2.635   3.878   2.289
 1636WAT     H2 5016   2.689   3.792   2.177
 1637WAT      O 5017   2.590   3.971   2.915
 1637WAT     H1 5018   2.620   4.062   2.907
 1637WAT     H2 5019   2.645   3.922   2.853
 1638WAT      O 5020   2.365   4.429   2.502
 1638WAT     H1 5021   2.343   4.407   2.592
 1638WAT     H2 5022   2.287   4.472   2.467
 1639WAT      O 5023   3.088   4.430   2.362
 1639WAT     H1 5024   3.028   4.502   2.343
 1639WAT     H2 5025   3.143   4.423   2.283
 1640WAT      O 5026   2.609   4.519   3.568
 1640WAT     H1 5027   2.600   4.425   3.553
 1640WAT     H2 5028   2.693   4.541   3.529
 1641WAT      O 5029   2.949   4.293   2.565
 1641WAT     H1 5030   2.988   4.325   2.483
 1641WAT     H2 5031   2.985   4.205   2.576
 1642WAT      O 5032   2.122   4.160   3.384
 1642WAT     H1 5033   2.083   4.245   3.404
 1642WAT     H2 5034   2.053   4.096   3.403
 1643WAT      O 5035   2.780   4.168   3.691
 1643WAT     H1 5036   2.711   4.149   3.754
 1643WAT     H2 5037   2.854   4.197   3.744
 1644WAT      O 5038   1.852   3.952   2.787
 1644WAT     H1 5039   1.824   4.009   2.858
 1644WAT     H2 5040   1.927   3.904   2.823
 1645WAT      O 5041   1.871   4.346   1.908
 1645WAT     H1 5042   1.863   4.441   1.922
 1645WAT     H2 5043   1.836   4.332   1.820
 1646WAT      O 5044   3.007   4.552   2.974
 1646WAT     H1 5045   2.934   4.603   3.009
 1646WAT     H2 5046   2.968   4.471   2.944
 1647WAT      O 5047   2.651   4.220   2.815
 1647WAT     H1 5048   2.651   4.176   2.730
 1647WAT     H2 5049   2.741   4.252   2.825
 1648WAT      O 5050   2.236   4.208   2.711
 1648WAT     H1 5051   2.202   4.256   2.786
 1648WAT     H2 5052   2.160   4.163   2.675
 1649WAT      O 5053   2.657   4.320   2.114
 1649WAT     H1 5054   2.669   4.316   2.209
 1649WAT     H2 5055   2.619   4.406   2.098
 1650WAT      O 5056   3.054   4.098   2.915
 1650WAT     H1 5057   3.055   4.143   3.000
 1650WAT     H2 5058   3.029   4.008   2.937
 1651WAT      O 5059   2.559   4.551   2.054
 1651WAT     H1 5060   2.502   4.506   1.991
 1651WAT     H2 5061   2.629   4.587   2.000
 1652WAT      O 5062   3.396   3.839   3.499
 1652WAT     H1 5063   3.429   3.766   3.552
 1652WAT     H2 5064   3.400   3.807   3.409
 1653WAT      O 5065   2.066   4.941   3.441
 1653WAT     H1 5066   2.028   4.877   3.501
 1653WAT     H2 5067   2.097   5.011   3.498
 1654WAT      O 5068   2.681   4.626   2.989
 1654WAT     H1 5069   2.718   4.578   3.064
 1654WAT     H2 5070   2.662   4.713   3.023
 1655WAT      O 5071   1.968   4.100   2.602
 1655WAT     H1 5072   1.939   4.064   2.686
 1655WAT     H2 5073   1.961   4.027   2.541
 1656WAT      O 5074   2.460   4.530   3.221
 1656WAT     H1 5075   2.430   4.618   3.244
 1656WAT     H2 5076   2.556   4.536   3.225
 1657WAT      O 5077   2.313   4.951   2.281
 1657WAT     H1 5078   2.236   4.897   2.265
 1657WAT     H2 5079   2.386   4.899   2.247
 1658WAT      O 5080   3.389   4.850   2.860
 1658WAT     H1 5081   3.461   4.900   2.821
 1658WAT     H2 5082   3.369   4.782   2.796
 1659WAT      O 5083   2.935   3.990   2.274
 1659WAT     H1 5084   2.854   3.940   2.267
 1659WAT     H2 5085   2.916   4.074   2.233
 1660WAT      O 5086   2.927   4.857   3.449
 1660WAT     H1 5087   2.920   4.765   3.423
 1660WAT     H2 5088   2.864   4.867   3.520
 1661WAT      O 5089   3.206   4.427   2.104
 1661WAT     H1 5090   3.295   4.458   2.087
 1661WAT     H2 5091   3.204   4.340   2.065
 1662WAT      O 5092   2.317   4.917   2.645
 1662WAT     H1 5093   2.369   4.837   2.639
 1662WAT     H2 5094   2.272   4.911   2.729
 1663WAT      O 5095   2.806   5.044   2.172
 1663WAT     H1 5096   2.840   5.118   2.122
 1663WAT     H2 5097   2.723   5.075   2.208
 1664WAT      O 5098   2.066   4.614   3.336
 1664WAT     H1 5099   2.030   4.681   3.395
 1664WAT     H2 5100   2.036   4.531   3.373
 1665WAT      O 5101   2.386   4.660   3.624
 1665WAT     H1 5102   2.356   4.674   3.535
 1665WAT     H2 5103   2.463   4.604   3.615
 1666WAT      O 5104   2.920   5.140   3.424
 1666WAT     H1 5105   2.922   5.046   3.402
 1666WAT     H2 5106   2.850   5.148   3.488
 1667WAT      O 5107   3.434   4.558   2.051
 1667WAT     H1 5108   3.425   4.601   1.966
 1667WAT     H2 5109   3.506   4.604   2.094
 1668WAT      O 5110   3.541   4.804   3.359
 1668WAT     H1 5111   3.469   4.863   3.339
 1668WAT     H2 5112   3.594   4.803   3.279
 1669WAT      O 5113   3.536   5.243   2.324
 1669WAT     H1 5114   3.472   5.178   2.351
 1669WAT     H2 5115   3.498   5.284   2.246
 1670WAT      O 5116   3.094   4.976   2.708
 1670WAT     H1 5117   3.130   4.916   2.642
 1670WAT     H2 5118   3.006   4.944   2.725
 1671WAT      O 5119   2.703   5.052   2.449
 1671WAT     H1 5120   2.772   5.107   2.487
 1671WAT     H2 5121   2.624   5.107   2.453
 1672WAT      O 5122   1.917   4.614   1.998
 1672WAT     H1 5123   2.004   4.642   2.027
 1672WAT     H2 5124   1.868   4.695   1.987
 1673WAT      O 5125   2.633   4.753   2.410
 1673WAT     H1 5126   2.679   4.834   2.433
 1673WAT     H2 5127   2.598   4.721   2.493
 1674WAT      O 5128   2.864   5.304   3.133
 1674WAT     H1 5129   2.928   5.324   3.201
 1674WAT     H2 5130   2.900   5.228   3.088
 1675WAT      O 5131   2.223   3.787   2.458
 1675WAT     H1 5132   2.211   3.786   2.552
 1675WAT     H2 5133   2.141   3.821   2.422
 1676WAT      O 5134   2.991   5.104   3.005
 1676WAT     H1 5135   3.055   5.034   3.016
 1676WAT     H2 5136   3.043   5.182   2.987
 1677WAT      O 5137   3.375   5.133   1.977
 1677WAT     H1 5138   3.353   5.061   2.037
 1677WAT     H2 5139   3.336   5.108   1.894
 1678WAT      O 5140   3.168   5.184   3.325
 1678WAT     H1 5141   3.202   5.243   3.393
 1678WAT     H2 5142   3.076   5.171   3.348
 1679WAT      O 5143   1.923   3.963   3.404
 1679WAT     H1 5144   1.852   3.983   3.464
 1679WAT     H2 5145   1.965   3.885   3.441
 1680WAT      O 5146   3.334   4.924   2.144
 1680WAT     H1 5147   3.305   4.970   2.222
 1680WAT     H2 5148   3.413   4.878   2.170
 1681WAT      O 5149   1.952   5.362   3.502
 1681WAT     H1 5150   1.963   5.268   3.488
 1681WAT     H2 5151   1.887   5.388   3.437
 1682WAT      O 5152   2.751   5.189   3.642
 1682WAT     H1 5153   2.719   5.117   3.697
 1682WAT     H2 5154   2.684   5.256   3.650
 1683WAT      O 5155   2.555   5.274   2.137
 1683WAT     H1 5156   2.554   5.347   2.075
 1683WAT     H2 5157   2.463   5.249   2.146
 1684WAT      O 5158   2.115   4.796   2.211
 1684WAT     H1 5159   2.055   4.870   2.212
 1684WAT     H2 5160   2.163   4.805   2.128
 1685WAT      O 5161   3.073   4.212   3.179
 1685WAT     H1 5162   3.110   4.130   3.211
 1685WAT     H2 5163   2.987   4.218   3.220
 1686WAT      O 5164   3.409   4.108   2.259
 1686WAT     H1 5165   3.346   4.118   2.188
 1686WAT     H2 5166   3.360   4.130   2.338
 1687WAT      O 5167   2.854   5.280   2.003
 1687WAT     H1 5168   2.864   5.259   1.910
 1687WAT     H2 5169   2.764   5.254   2.023
 1688WAT      O 5170   2.606   4.336   2.401
 1688WAT     H1 5171   2.535   4.382   2.445
 1688WAT     H2 5172   2.635   4.270   2.465
 1689WAT      O 5173   2.769   4.478   3.201
 1689WAT     H1 5174   2.819   4.525   3.268
 1689WAT     H2 5175   2.783   4.385   3.222
 1690WAT      O 5176   3.009   4.008   2.545
 1690WAT     H1 5177   2.997   4.010   2.450
 1690WAT     H2 5178   3.104   4.013   2.557
 1691WAT      O 5179   2.427   4.166   2.139
 1691WAT     H1 5180   2.511   4.210   2.132
 1691WAT     H2 5181   2.390   4.198   2.221
 1692WAT      O 5182   3.489   4.099   3.285
 1692WAT     H1 5183   3.439   4.173   3.319
 1692WAT     H2 5184   3.571   4.138   3.254
 1693WAT      O 5185   3.319   4.624   2.630
 1693WAT     H1 5186   3.225   4.625   2.647
 1693WAT     H2 5187   3.350   4.545   2.674
 1694WAT      O 5188   2.316   4.792   1.986
 1694WAT     H1 5189   2.393   4.781   2.042
 1694WAT     H2 5190   2.324   4.722   1.921
 1695WAT      O 5191   2.186   4.535   2.054
 1695WAT     H1 5192   2.194   4.440   2.065
 1695WAT     H2 5193   2.275   4.568   2.065
 1696WAT      O 5194   1.955   5.157   2.352
 1696WAT     H1 5195   1.862   5.181   2.351
 1696WAT     H2 5196   2.001   5.239   2.340
 1697WAT      O 5197   3.050   5.079   3.678
 1697WAT     H1 5198   2.990   5.082   3.604
 1697WAT     H2 5199   3.020   5.006   3.732
 1698WAT      O 5200   1.939   4.717   3.578
 1698WAT     H1 5201   1.989   4.659   3.635
 1698WAT     H2 5202   1.865   4.746   3.632
 1699WAT      O 5203   2.629   4.989   1.933
 1699WAT     H1 5204   2.618   4.928   2.006
 1699WAT     H2 5205   2.612   4.937   1.855
 1700WAT      O 5206   2.644   4.858   3.531
 1700WAT     H1 5207   2.567   4.915   3.523
 1700WAT     H2 5208   2.662   4.829   3.442
 1701WAT      O 5209   2.953   4.896   1.994
 1701WAT     H1 5210   2.898   4.940   2.058
 1701WAT     H2 5211   3.015   4.845   2.046
 1702WAT      O 5212   3.358   5.031   3.587
 1702WAT     H1 5213   3.432   5.065   3.537
 1702WAT     H2 5214   3.282   5.048   3.532
 1703WAT      O 5215   2.142   4.531   3.667
 1703WAT     H1 5216   2.146   4.502   3.758
 1703WAT     H2 5217   2.227   4.572   3.651
 1704WAT      O 5218   2.520   4.791   2.183
 1704WAT     H1 5219   2.562   4.775   2.268
 1704WAT     H2 5220   2.532   4.710   2.134
 1705WAT      O 5221   2.336   4.389   3.464
 1705WAT     H1 5222   2.283   4.340   3.401
 1705WAT     H2 5223   2.403   4.432   3.411
 1706WAT      O 5224   2.771   4.694   1.908
 1706WAT     H1 5225   2.823   4.622   1.872
 1706WAT     H2 5226   2.836   4.758   1.938
 1707WAT      O 5227   3.226   4.836   3.440
 1707WAT     H1 5228   3.267   4.852   3.525
 1707WAT     H2 5229   3.132   4.849   3.457
 1708WAT      O 5230   3.273   4.570   3.641
 1708WAT     H1 5231   3.331   4.495   3.632
 1708WAT     H2 5232   3.291   4.623   3.563
 1709WAT      O 5233   2.385   4.086   3.472
 1709WAT     H1 5234   2.375   4.024   3.400
 1709WAT     H2 5235   2.327   4.159   3.449
 1710WAT      O 5236   2.661   3.942   3.175
 1710WAT     H1 5237   2.616   3.944   3.091
 1710WAT     H2 5238   2.598   3.902   3.235
 1711WAT      O 5239   2.702   4.831   3.237
 1711WAT     H1 5240   2.744   4.916   3.220
 1711WAT     H2 5241   2.610   4.845   3.215
 1712WAT      O 5242   2.935   4.604   3.376
 1712WAT     H1 5243   2.947   4.545   3.450
 1712WAT     H2 5244   3.021   4.608   3.334
 1713WAT      O 5245   3.169   4.660   3.233
 1713WAT     H1 5246   3.117   4.712   3.173
 1713WAT     H2 5247   3.204   4.723   3.297
 1714WAT      O 5248   2.409   4.399   1.878
 1714WAT     H1 5249   2.389   4.312   1.914
 1714WAT     H2 5250   2.392   4.390   1.784
 1715WAT      O 5251   2.612   4.259   3.502
 1715WAT     H1 5252   2.671   4.228   3.570
 1715WAT     H2 5253   2.530   4.211   3.517
 1716WAT      O 5254   3.094   4.220   3.525
 1716WAT     H1 5255   3.025   4.154   3.518
 1716WAT     H2 5256   3.166   4.176   3.569
 1717WAT      O 5257   3.157   3.880   2.131
 1717WAT     H1 5258   3.185   3.796   2.166
 1717WAT     H2 5259   3.080   3.903   2.182
 1718WAT      O 5260   2.289   4.109   1.877
 1718WAT     H1 5261   2.319   4.109   1.786
 1718WAT     H2 5262   2.363   4.074   1.926
 1719WAT      O 5263   2.611   4.003   1.975
 1719WAT     H1 5264   2.576   3.935   1.917
 1719WAT     H2 5265   2.631   3.957   2.057
 1720WAT      O 5266   2.191   5.039   1.960
 1720WAT     H1 5267   2.235   5.093   2.026
 1720WAT     H2 5268   2.240   4.957   1.961
 1721WAT      O 5269   1.913   5.318   2.705
 1721WAT     H1 5270   1.946   5.231   2.682
 1721WAT     H2 5271   1.956   5.339   2.788
 1722WAT      O 5272   2.372   5.151   2.471
 1722WAT     H1 5273   2.342   5.139   2.561
 1722WAT     H2 5274   2.362   5.065   2.430
 1723WAT      O 5275   3.525   5.355   3.408
 1723WAT     H1 5276   3.465   5.361   3.333
 1723WAT     H2 5277   3.538   5.261   3.421
 1724WAT      O 5278   3.649   5.129   1.942
 1724WAT     H1 5279   3.566   5.136   1.989
 1724WAT     H2 5280   3.667   5.218   1.911
 1725WAT      O 5281   3.595   4.804   2.192
 1725WAT     H1 5282   3.671   4.861   2.202
 1725WAT     H2 5283   3.596   4.747   2.269
 1726WAT      O 5284   1.945   4.656   2.615
 1726WAT     H1 5285   1.879   4.629   2.551
 1726WAT     H2 5286   2.029   4.645   2.570
 1727WAT      O 5287   3.696   4.889   2.676
 1727WAT     H1 5288   3.733   4.811   2.636
 1727WAT     H2 5289   3.760   4.958   2.658
 1728WAT      O 5290   3.394   5.027   3.218
 1728WAT     H1 5291   3.312   5.070   3.244
 1728WAT     H2 5292   3.435   5.089   3.156
 1729WAT      O 5293   3.600   4.833   1.908
 1729WAT     H1 5294   3.628   4.924   1.895
 1729WAT     H2 5295   3.581   4.827   2.001
 1730WAT      O 5296   3.240   4.135   2.037
 1730WAT     H1 5297   3.282   4.117   1.953
 1730WAT     H2 5298   3.209   4.050   2.068
 1731WAT      O 5299   3.590   4.627   2.407
 1731WAT     H1 5300   3.552   4.550   2.364
 1731WAT     H2 5301   3.517   4.665   2.456
 1732WAT      O 5302   2.049   4.694   3.069
 1732WAT     H1 5303   2.085   4.686   3.157
 1732WAT     H2 5304   1.992   4.618   3.059
 1733WAT      O 5305   3.529   4.541   3.370
 1733WAT     H1 5306   3.506   4.518   3.280
 1733WAT     H2 5307   3.555   4.633   3.366
 1734WAT      O 5308   2.004   4.386   3.460
 1734WAT     H1 5309   1.914   4.382   3.493
 1734WAT     H2 5310   2.058   4.405   3.536
 1735WAT      O 5311   3.373   4.064   3.648
 1735WAT     H1 5312   3.460   4.065   3.686
 1735WAT     H2 5313   3.374   3.990   3.587
 1736WAT      O 5314   1.866   4.377   2.209
 1736WAT     H1 5315   1.776   4.403   2.192
 1736WAT     H2 5316   1.915   4.404   2.131
 1737WAT      O 5317   3.517   4.449   2.737
 1737WAT     H1 5318   3.570   4.400   2.674
 1737WAT     H2 5319   3.576   4.463   2.811
 1738WAT      O 5320   3.535   4.458   3.089
 1738WAT     H1 5321   3.440   4.454   3.101
 1738WAT     H2 5322   3.553   4.549   3.066
 1739WAT      O 5323   2.121   4.283   2.000
 1739WAT     H1 5324   2.192   4.240   1.952
 1739WAT     H2 5325   2.049   4.289   1.937
 1740WAT      O 5326   2.085   3.888   1.904
 1740WAT     H1 5327   2.158   3.942   1.936
 1740WAT     H2 5328   2.113   3.861   1.817
 1741WAT      O 5329   3.466   4.375   2.331
 1741WAT     H1 5330   3.516   4.352   2.409
 1741WAT     H2 5331   3.446   4.291   2.289
 1742WAT      O 5332   2.054   3.813   2.894
 1742WAT     H1 5333   2.119   3.758   2.850
 1742WAT     H2 5334   2.096   3.839   2.977
 1743WAT      O 5335   3.609   4.239   2.584
 1743WAT     H1 5336   3.598   4.223   2.678
 1743WAT     H2 5337   3.685   4.186   2.560
 1744WAT      O 5338   3.444   3.832   3.230
 1744WAT     H1 5339   3.508   3.894   3.267
 1744WAT     H2 5340   3.459   3.836   3.136
 1745WAT      O 5341   3.698   4.022   1.908
 1745WAT     H1 5342   3.791   4.008   1.887
 1745WAT     H2 5343   3.696   4.030   2.004
 1746WAT      O 5344   3.705   4.099   2.171
 1746WAT     H1 5345   3.626   4.092   2.224
 1746WAT     H2 5346   3.726   4.192   2.170
 1747WAT      O 5347   2.030   3.829   3.169
 1747WAT     H1 5348   1.995   3.874   3.245
 1747WAT     H2 5349   1.996   3.739   3.177
 1748WAT      O 5350   2.190   5.146   3.585
 1748WAT     H1 5351   2.186   5.109   3.673
 1748WAT     H2 5352   2.203   5.240   3.599
 1749WAT      O 5353   2.560   5.301   3.145
 1749WAT     H1 5354   2.536   5.328   3.057
 1749WAT     H2 5355   2.654   5.318   3.151
 1750WAT      O 5356   2.781   3.948   3.521
 1750WAT     H1 5357   2.775   4.007   3.596
 1750WAT     H2 5358   2.875   3.937   3.506
 1751WAT      O 5359   3.045   3.913   3.485
 1751WAT     H1 5360   3.106   3.945   3.419
 1751WAT     H2 5361   3.099   3.865   3.547
 1752WAT      O 5362   2.097   3.781   3.496
 1752WAT     H1 5363   2.152   3.763   3.420
 1752WAT     H2 5364   2.103   3.702   3.550
 1753WAT      O 5365   3.119   3.770   3.117
 1753WAT     H1 5366   3.031   3.803   3.097
 1753WAT     H2 5367   3.108   3.723   3.200
 1754WAT      O 5368   3.209   3.990   3.256
 1754WAT     H1 5369   3.177   3.909   3.218
 1754WAT     H2 5370   3.304   3.986   3.244
 1755WAT      O 5371   2.137   5.177   3.192
 1755WAT     H1 5372   2.065   5.115   3.185
 1755WAT     H2 5373   2.143   5.216   3.105
 1756WAT      O 5374   2.893   3.861   3.011
 1756WAT     H1 5375   2.815   3.909   3.039
 1756WAT     H2 5376   2.864   3.771   3.001
 1757WAT      O 5377   3.349   3.932   2.816
 1757WAT     H1 5378   3.393   3.926   2.731
 1757WAT     H2 5379   3.322   4.023   2.823
 1758WAT      O 5380   3.535   3.895   2.617
 1758WAT     H1 5381   3.529   3.800   2.602
 1758WAT     H2 5382   3.613   3.906   2.671
 1759WAT      O 5383   2.028   3.892   2.264
 1759WAT     H1 5384   2.104   3.903   2.206
 1759WAT     H2 5385   1.982   3.976   2.259
 1760WAT      O 5386   2.682   4.103   2.563
 1760WAT     H1 5387   2.601   4.066   2.528
 1760WAT     H2 5388   2.732   4.028   2.593
 1761WAT      O 5389   3.132   3.770   2.686
 1761WAT     H1 5390   3.192   3.827   2.734
 1761WAT     H2 5391   3.058   3.826   2.664
 1762WAT      O 5392   3.447   3.810   2.214
 1762WAT     H1 5393   3.466   3.900   2.240
 1762WAT     H2 5394   3.368   3.787   2.263
 1763WAT      O 5395   2.265   3.945   2.118
 1763WAT     H1 5396   2.318   3.866   2.105
 1763WAT     H2 5397   2.328   4.012   2.141
 1764WAT      O 5398   2.484   3.918   2.423
 1764WAT     H1 5399   2.421   3.848   2.440
 1764WAT     H2 5400   2.430   3.994   2.401
 1765WAT      O 5401   2.497   3.846   3.667
 1765WAT     H1 5402   2.469   3.897   3.590
 1765WAT     H2 5403   2.535   3.766   3.630
 1766WAT      O 5404   2.302   5.185   2.146
 1766WAT     H1 5405   2.239   5.231   2.201
 1766WAT     H2 5406   2.314   5.100   2.189
 1767WAT      O 5407   3.157   3.788   3.724
 1767WAT     H1 5408   3.146   3.820   3.814
 1767WAT     H2 5409   3.239   3.828   3.695
 1768WAT      O 5410   3.048   4.590   0.761
 1768WAT     H1 5411   3.040   4.498   0.734
 1768WAT     H2 5412   3.006   4.639   0.690
 1769WAT      O 5413   2.861   4.767   0.949
 1769WAT     H1 5414   2.783   4.719   0.978
 1769WAT     H2 5415   2.926   4.699   0.931
 1770WAT      O 5416   2.263   4.799   1.037
 1770WAT     H1 5417   2.179   4.773   1.076
 1770WAT     H2 5418   2.323   4.806   1.110
 1771WAT      O 5419   3.263   5.208   0.827
 1771WAT     H1 5420   3.217   5.131   0.860
 1771WAT     H2 5421   3.344   5.211   0.877
 1772WAT      O 5422   2.261   5.202   1.056
 1772WAT     H1 5423   2.291   5.113   1.038
 1772WAT     H2 5424   2.335   5.258   1.033
 1773WAT      O 5425   2.103   4.295   0.415
 1773WAT     H1 5426   2.015   4.329   0.405
 1773WAT     H2 5427   2.132   4.275   0.326
 1774WAT      O 5428   1.900   4.555   1.003
 1774WAT     H1 5429   1.957   4.478   1.003
 1774WAT     H2 5430   1.900   4.585   0.912
 1775WAT      O 5431   2.805   5.035   0.949
 1775WAT     H1 5432   2.798   4.941   0.933
 1775WAT     H2 5433   2.881   5.044   1.007
 1776WAT      O 5434   2.024   4.096   1.182
 1776WAT     H1 5435   2.006   4.006   1.210
 1776WAT     H2 5436   1.984   4.150   1.249
 1777WAT      O 5437   2.908   4.316   0.972
 1777WAT     H1 5438   2.946   4.228   0.961
 1777WAT     H2 5439   2.898   4.349   0.883
 1778WAT      O 5440   2.321   4.153   0.518
 1778WAT     H1 5441   2.332   4.243   0.549
 1778WAT     H2 5442   2.230   4.148   0.489
 1779WAT      O 5443   3.286   4.065   0.665
 1779WAT     H1 5444   3.368   4.016   0.670
 1779WAT     H2 5445   3.290   4.124   0.741
 1780WAT      O 5446   2.086   4.345   1.043
 1780WAT     H1 5447   2.154   4.372   1.105
 1780WAT     H2 5448   2.054   4.261   1.076
 1781WAT      O 5449   2.505   4.450   0.952
 1781WAT     H1 5450   2.556   4.500   1.016
 1781WAT     H2 5451   2.558   4.372   0.934
 1782WAT      O 5452   3.715   4.267   1.322
 1782WAT     H1 5453   3.645   4.306   1.270
 1782WAT     H2 5454   3.742   4.336   1.382
 1783WAT      O 5455   2.334   3.914   1.378
 1783WAT     H1 5456   2.334   3.966   1.298
 1783WAT     H2 5457   2.251   3.866   1.376
 1784WAT      O 5458   2.972   4.925   0.528
 1784WAT     H1 5459   2.910   4.971   0.472
 1784WAT     H2 5460   3.023   4.994   0.570
 1785WAT      O 5461   2.459   4.878   1.196
 1785WAT     H1 5462   2.425   4.940   1.260
 1785WAT     H2 5463   2.476   4.930   1.118
 1786WAT      O 5464   3.310   4.259   0.943
 1786WAT     H1 5465   3.239   4.288   1.001
 1786WAT     H2 5466   3.346   4.340   0.907
 1787WAT      O 5467   2.302   4.085   1.179
 1787WAT     H1 5468   2.336   4.169   1.149
 1787WAT     H2 5469   2.208   4.100   1.191
 1788WAT      O 5470   2.380   5.075   1.377
 1788WAT     H1 5471   2.442   5.142   1.349
 1788WAT     H2 5472   2.294   5.115   1.368
 1789WAT      O 5473   1.909   4.994   0.265
 1789WAT     H1 5474   1.871   5.042   0.192
 1789WAT     H2 5475   1.935   5.061   0.329
 1790WAT      O 5476   3.472   5.221   1.169
 1790WAT     H1 5477   3.403   5.288   1.168
 1790WAT     H2 5478   3.525   5.241   1.092
 1791WAT      O 5479   3.617   4.204   0.982
 1791WAT     H1 5480   3.522   4.207   0.995
 1791WAT     H2 5481   3.649   4.285   1.020
 1792WAT      O 5482   2.670   3.834   0.811
 1792WAT     H1 5483   2.701   3.778   0.740
 1792WAT     H2 5484   2.577   3.847   0.793
 1793WAT      O 5485   3.355   5.078   0.549
 1793WAT     H1 5486   3.344   4.983   0.562
 1793WAT     H2 5487   3.354   5.114   0.638
 1794WAT      O 5488   3.165   4.896   1.173
 1794WAT     H1 5489   3.207   4.874   1.090
 1794WAT     H2 5490   3.237   4.921   1.230
 1795WAT      O 5491   2.909   4.640   0.485
 1795WAT     H1 5492   2.816   4.634   0.508
 1795WAT     H2 5493   2.924   4.734   0.474
 1796WAT      O 5494   3.560   4.736   1.182
 1796WAT     H1 5495   3.477   4.743   1.135
 1796WAT     H2 5496   3.619   4.794   1.136
 1797WAT      O 5497   3.312   4.796   0.535
 1797WAT     H1 5498   3.250   4.763   0.471
 1797WAT     H2 5499   3.310   4.732   0.606
 1798WAT      O 5500   3.256   4.414   1.277
 1798WAT     H1 5501   3.215   4.497   1.302
 1798WAT     H2 5502   3.183   4.356   1.258
 1799WAT      O 5503   2.469   4.693   0.763
 1799WAT     H1 5504   2.429   4.622   0.714
 1799WAT     H2 5505   2.478   4.658   0.852
 1800WAT      O 5506   2.516   5.062   0.980
 1800WAT     H1 5507   2.486   5.001   0.912
 1800WAT     H2 5508   2.611   5.065   0.968
 1801WAT      O 5509   2.341   4.370   1.141
 1801WAT     H1 5510   2.396   4.381   1.064
 1801WAT     H2 5511   2.392   4.408   1.213
 1802WAT      O 5512   2.425   5.035   1.645
 1802WAT     H1 5513   2.336   5.058   1.669
 1802WAT     H2 5514   2.428   5.048   1.550
 1803WAT      O 5515   3.129   4.720   0.236
 1803WAT     H1 5516   3.173   4.637   0.221
 1803WAT     H2 5517   3.201   4.784   0.245
 1804WAT      O 5518   2.308   4.722   1.502
 1804WAT     H1 5519   2.294   4.810   1.539
 1804WAT     H2 5520   2.220   4.688   1.488
 1805WAT      O 5521   2.940   5.214   0.633
 1805WAT     H1 5522   2.984   5.288   0.591
 1805WAT     H2 5523   2.934   5.239   0.725
 1806WAT      O 5524   2.488   5.317   1.723
 1806WAT     H1 5525   2.485   5.357   1.636
 1806WAT     H2 5526   2.472   5.224   1.707
 1807WAT      O 5527   2.139   4.582   0.513
 1807WAT     H1 5528   2.127   4.655   0.452
 1807WAT     H2 5529   2.108   4.505   0.465
 1808WAT      O 5530   1.903   4.899   1.094
 1808WAT     H1 5531   1.911   4.913   0.999
 1808WAT     H2 5532   1.965   4.829   1.113
 1809WAT      O 5533   2.028   5.069   0.735
 1809WAT     H1 5534   1.987   5.084   0.650
 1809WAT     H2 5535   2.117   5.041   0.715
 1810WAT      O 5536   3.623   5.114   1.569
 1810WAT     H1 5537   3.636   5.090   1.477
 1810WAT     H2 5538   3.628   5.031   1.616
 1811WAT      O 5539   3.609   4.319   1.665
 1811WAT     H1 5540   3.547   4.370   1.612
 1811WAT     H2 5541   3.577   4.229   1.659
 1812WAT      O 5542   1.909   5.004   1.348
 1812WAT     H1 5543   1.925   4.957   1.266
 1812WAT     H2 5544   1.955   4.953   1.414
 1813WAT      O 5545   2.386   3.917   0.851
 1813WAT     H1 5546   2.342   3.995   0.818
 1813WAT     H2 5547   2.442   3.949   0.922
 1814WAT      O 5548   2.815   4.203   1.412
 1814WAT     H1 5549   2.769   4.224   1.493
 1814WAT     H2 5550   2.775   4.122   1.382
 1815WAT      O 5551   3.315   4.325   1.525
 1815WAT     H1 5552   3.230   4.295   1.557
 1815WAT     H2 5553   3.299   4.350   1.434
 1816WAT      O 5554   3.024   4.475   1.735
 1816WAT     H1 5555   3.057   4.392   1.701
 1816WAT     H2 5556   3.103   4.528   1.750
 1817WAT      O 5557   2.698   3.879   0.340
 1817WAT     H1 5558   2.635   3.878   0.412
 1817WAT     H2 5559   2.689   3.792   0.300
 1818WAT      O 5560   2.590   3.971   1.037
 1818WAT     H1 5561   2.620   4.062   1.029
 1818WAT     H2 5562   2.645   3.922   0.976
 1819WAT      O 5563   2.365   4.429   0.624
 1819WAT     H1 5564   2.343   4.407   0.715
 1819WAT     H2 5565   2.287   4.472   0.590
 1820WAT      O 5566   3.088   4.430   0.484
 1820WAT     H1 5567   3.028   4.502   0.466
 1820WAT     H2 5568   3.143   4.423   0.406
 1821WAT      O 5569   2.609   4.519   1.691
 1821WAT     H1 5570   2.600   4.425   1.676
 1821WAT     H2 5571   2.693   4.541   1.651
 1822WAT      O 5572   2.949   4.293   0.687
 1822WAT     H1 5573   2.988   4.325   0.606
 1822WAT     H2 5574   2.985   4.205   0.699
 1823WAT      O 5575   2.122   4.160   1.506
 1823WAT     H1 5576   2.083   4.245   1.527
 1823WAT     H2 5577   2.053   4.096   1.525
 1824WAT      O 5578   2.780   4.168   1.813
 1824WAT     H1 5579   2.711   4.149   1.877
 1824WAT     H2 5580   2.854   4.197   1.866
 1825WAT      O 5581   1.852   3.952   0.910
 1825WAT     H1 5582   1.824   4.009   0.981
 1825WAT     H2 5583   1.927   3.904   0.946
 1826WAT      O 5584   3.007   4.552   1.097
 1826WAT     H1 5585   2.934   4.603   1.132
 1826WAT     H2 5586   2.968   4.471   1.067
 1827WAT      O 5587   2.651   4.220   0.937
 1827WAT     H1 5588   2.651   4.176   0.852
 1827WAT     H2 5589   2.741   4.252   0.948
 1828WAT      O 5590   2.236   4.208   0.833
 1828WAT     H1 5591   2.202   4.256   0.909
 1828WAT     H2 5592   2.160   4.163   0.797
 1829WAT      O 5593   2.657   4.320   0.236
 1829WAT     H1 5594   2.669   4.316   0.331
 1829WAT     H2 5595   2.619   4.406   0.221
 1830WAT      O 5596   3.054   4.098   1.038
 1830WAT     H1 5597   3.055   4.143   1.122
 1830WAT     H2 5598   3.029   4.008   1.059
 1831WAT      O 5599   3.396   3.839   1.622
 1831WAT     H1 5600   3.429   3.766   1.674
 1831WAT     H2 5601   3.400   3.807   1.532
 1832WAT      O 5602   2.066   4.941   1.564
 1832WAT     H1 5603   2.028   4.877   1.624
 1832WAT     H2 5604   2.097   5.011   1.621
 1833WAT      O 5605   2.681   4.626   1.112
 1833WAT     H1 5606   2.718   4.578   1.187
 1833WAT     H2 5607   2.662   4.713   1.146
 1834WAT      O 5608   1.968   4.100   0.725
 1834WAT     H1 5609   1.939   4.064   0.809
 1834WAT     H2 5610   1.961   4.027   0.663
 1835WAT      O 5611   2.460   4.530   1.344
 1835WAT     H1 5612   2.430   4.618   1.366
 1835WAT     H2 5613   2.556   4.536   1.347
 1836WAT      O 5614   2.313   4.951   0.403
 1836WAT     H1 5615   2.236   4.897   0.387
 1836WAT     H2 5616   2.386   4.899   0.370
 1837WAT      O 5617   3.389   4.850   0.983
 1837WAT     H1 5618   3.461   4.900   0.944
 1837WAT     H2 5619   3.369   4.782   0.918
 1838WAT      O 5620   2.935   3.990   0.397
 1838WAT     H1 5621   2.854   3.940   0.389
 1838WAT     H2 5622   2.916   4.074   0.355
 1839WAT      O 5623   2.927   4.857   1.571
 1839WAT     H1 5624   2.920   4.765   1.546
 1839WAT     H2 5625   2.864   4.867   1.643
 1840WAT      O 5626   3.206   4.427   0.227
 1840WAT     H1 5627   3.295   4.458   0.209
 1840WAT     H2 5628   3.204   4.340   0.187
 1841WAT      O 5629   2.317   4.917   0.767
 1841WAT     H1 5630   2.369   4.837   0.762
 1841WAT     H2 5631   2.272   4.911   0.851
 1842WAT      O 5632   2.806   5.044   0.294
 1842WAT     H1 5633   2.840   5.118   0.245
 1842WAT     H2 5634   2.723   5.075   0.331
 1843WAT      O 5635   2.066   4.614   1.458
 1843WAT     H1 5636   2.030   4.681   1.517
 1843WAT     H2 5637   2.036   4.531   1.496
 1844WAT      O 5638   2.386   4.660   1.747
 1844WAT     H1 5639   2.356   4.674   1.657
 1844WAT     H2 5640   2.463   4.604   1.738
 1845WAT      O 5641   2.920   5.140   1.546
 1845WAT     H1 5642   2.922   5.046   1.525
 1845WAT     H2 5643   2.850   5.148   1.610
 1846WAT      O 5644   3.541   4.804   1.481
 1846WAT     H1 5645   3.469   4.863   1.461
 1846WAT     H2 5646   3.594   4.803   1.401
 1847WAT      O 5647   3.536   5.243   0.446
 1847WAT     H1 5648   3.472   5.178   0.474
 1847WAT     H2 5649   3.498   5.284   0.369
 1848WAT      O 5650   3.094   4.976   0.831
 1848WAT     H1 5651   3.130   4.916   0.765
 1848WAT     H2 5652   3.006   4.944   0.848
 1849WAT      O 5653   2.703   5.052   0.572
 1849WAT     H1 5654   2.772   5.107   0.610
 1849WAT     H2 5655   2.624   5.107   0.575
 1850WAT      O 5656   2.633   4.753   0.533
 1850WAT     H1 5657   2.679   4.834   0.555
 1850WAT     H2 5658   2.598   4.721   0.616
 1851WAT      O 5659   2.864   5.304   1.256
 1851WAT     H1 5660   2.928   5.324   1.324
 1851WAT     H2 5661   2.900   5.228   1.211
 1852WAT      O 5662   2.223   3.787   0.580
 1852WAT     H1 5663   2.211   3.786   0.675
 1852WAT     H2 5664   2.141   3.821   0.545
 1853WAT      O 5665   2.991   5.104   1.128
 1853WAT     H1 5666   3.055   5.034   1.139
 1853WAT     H2 5667   3.043   5.182   1.110
 1854WAT      O 5668   3.168   5.184   1.448
 1854WAT     H1 5669   3.202   5.243   1.516
 1854WAT     H2 5670   3.076   5.171   1.471
 1855WAT      O 5671   1.923   3.963   1.526
 1855WAT     H1 5672   1.852   3.983   1.587
 1855WAT     H2 5673   1.965   3.885   1.563
 1856WAT      O 5674   3.334   4.924   0.266
 1856WAT     H1 5675   3.305   4.970   0.345
 1856WAT     H2 5676   3.413   4.878   0.293
 1857WAT      O 5677   1.952   5.362   1.625
 1857WAT     H1 5678   1.963   5.268   1.611
 1857WAT     H2 5679   1.887   5.388   1.560
 1858WAT      O 5680   2.751   5.189   1.765
 1858WAT     H1 5681   2.719   5.117   1.819
 1858WAT     H2 5682   2.684   5.256   1.772
 1859WAT      O 5683   2.555   5.274   0.259
 1859WAT     H1 5684   2.554   5.347   0.198
 1859WAT     H2 5685   2.463   5.249   0.268
 1860WAT      O 5686   2.115   4.796   0.334
 1860WAT     H1 5687   2.055   4.870   0.335
 1860WAT     H2 5688   2.163   4.805   0.251
 1861WAT      O 5689   3.073   4.212   1.301
 1861WAT     H1 5690   3.110   4.130   1.334
 1861WAT     H2 5691   2.987   4.218   1.343
 1862WAT      O 5692   3.409   4.108   0.382
 1862WAT     H1 5693   3.346   4.118   0.311
 1862WAT     H2 5694   3.360   4.130   0.461
 1863WAT      O 5695   2.606   4.336   0.524
 1863WAT     H1 5696   2.535   4.382   0.568
 1863WAT     H2 5697   2.635   4.270   0.587
 1864WAT      O 5698   2.769   4.478   1.324
 1864WAT     H1 5699   2.819   4.525   1.390
 1864WAT     H2 5700   2.783   4.385   1.344
 1865WAT      O 5701   3.009   4.008   0.668
 1865WAT     H1 5702   2.997   4.010   0.573
 1865WAT     H2 5703   3.104   4.013   0.680
 1866WAT      O 5704   2.427   4.166   0.261
 1866WAT     H1 5705   2.511   4.210   0.255
 1866WAT     H2 5706   2.390   4.198   0.344
 1867WAT      O 5707   3.489   4.099   1.408
 1867WAT     H1 5708   3.439   4.173   1.442
 1867WAT     H2 5709   3.571   4.138   1.376
 1868WAT      O 5710   3.319   4.624   0.752
 1868WAT     H1 5711   3.225   4.625   0.770
 1868WAT     H2 5712   3.350   4.545   0.797
 1869WAT      O 5713   2.186   4.535   0.177
 1869WAT     H1 5714   2.194   4.440   0.188
 1869WAT     H2 5715   2.275   4.568   0.187
 1870WAT      O 5716   1.955   5.157   0.475
 1870WAT     H1 5717   1.862   5.181   0.474
 1870WAT     H2 5718   2.001   5.239   0.462
 1871WAT      O 5719   3.050   5.079   1.801
 1871WAT     H1 5720   2.990   5.082   1.727
 1871WAT     H2 5721   3.020   5.006   1.854
 1872WAT      O 5722   1.939   4.717   1.700
 1872WAT     H1 5723   1.989   4.659   1.758
 1872WAT     H2 5724   1.865   4.746   1.754
 1873WAT      O 5725   2.644   4.858   1.654
 1873WAT     H1 5726   2.567   4.915   1.645
 1873WAT     H2 5727   2.662   4.829   1.564
 1874WAT      O 5728   3.358   5.031   1.709
 1874WAT     H1 5729   3.432   5.065   1.659
 1874WAT     H2 5730   3.282   5.048   1.654
 1875WAT      O 5731   2.142   4.531   1.790
 1875WAT     H1 5732   2.146   4.502   1.881
 1875WAT     H2 5733   2.227   4.572   1.774
 1876WAT      O 5734   2.520   4.791   0.306
 1876WAT     H1 5735   2.562   4.775   0.390
 1876WAT     H2 5736   2.532   4.710   0.256
 1877WAT      O 5737   2.336   4.389   1.587
 1877WAT     H1 5738   2.283   4.340   1.524
 1877WAT     H2 5739   2.403   4.432   1.533
 1878WAT      O 5740   3.226   4.836   1.563
 1878WAT     H1 5741   3.267   4.852   1.648
 1878WAT     H2 5742   3.132   4.849   1.579
 1879WAT      O 5743   3.273   4.570   1.763
 1879WAT     H1 5744   3.331   4.495   1.755
 1879WAT     H2 5745   3.291   4.623   1.686
 1880WAT      O 5746   2.385   4.086   1.595
 1880WAT     H1 5747   2.375   4.024   1.522
 1880WAT     H2 5748   2.327   4.159   1.572
 1881WAT      O 5749   2.661   3.942   1.298
 1881WAT     H1 5750   2.616   3.944   1.213
 1881WAT     H2 5751   2.598   3.902   1.358
 1882WAT      O 5752   2.702   4.831   1.360
 1882WAT     H1 5753   2.744   4.916   1.343
 1882WAT     H2 5754   2.610   4.845   1.337
 1883WAT      O 5755   2.935   4.604   1.498
 1883WAT     H1 5756   2.947   4.545   1.572
 1883WAT     H2 5757   3.021   4.608   1.456
 1884WAT      O 5758   3.169   4.660   1.356
 1884WAT     H1 5759   3.117   4.712   1.296
 1884WAT     H2 5760   3.204   4.723   1.419
 1885WAT      O 5761   2.612   4.259   1.624
 1885WAT     H1 5762   2.671   4.228   1.693
 1885WAT     H2 5763   2.530   4.211   1.640
 1886WAT      O 5764   3.094   4.220   1.647
 1886WAT     H1 5765   3.025   4.154   1.641
 1886WAT     H2 5766   3.166   4.176   1.692
 1887WAT      O 5767   3.157   3.880   0.253
 1887WAT     H1 5768   3.185   3.796   0.289
 1887WAT     H2 5769   3.080   3.903   0.305
 1888WAT      O 5770   1.913   5.318   0.828
 1888WAT     H1 5771   1.946   5.231   0.805
 1888WAT     H2 5772   1.956   5.339   0.911
 1889WAT      O 5773   2.372   5.151   0.594
 1889WAT     H1 5774   2.342   5.139   0.684
 1889WAT     H2 5775   2.362   5.065   0.553
 1890WAT      O 5776   3.525   5.355   1.530
 1890WAT     H1 5777   3.465   5.361   1.456
 1890WAT     H2 5778   3.538   5.261   1.543
 1891WAT      O 5779   3.595   4.804   0.314
 1891WAT     H1 5780   3.671   4.861   0.325
 1891WAT     H2 5781   3.596   4.747   0.392
 1892WAT      O 5782   1.945   4.656   0.737
 1892WAT     H1 5783   1.879   4.629   0.673
 1892WAT     H2 5784   2.029   4.645   0.693
 1893WAT      O 5785   3.696   4.889   0.799
 1893WAT     H1 5786   3.733   4.811   0.758
 1893WAT     H2 5787   3.760   4.958   0.781
 1894WAT      O 5788   3.394   5.027   1.340
 1894WAT     H1 5789   3.312   5.070   1.366
 1894WAT     H2 5790   3.435   5.089   1.279
 1895WAT      O 5791   3.590   4.627   0.529
 1895WAT     H1 5792   3.552   4.550   0.486
 1895WAT     H2 5793   3.517   4.665   0.578
 1896WAT      O 5794   2.049   4.694   1.192
 1896WAT     H1 5795   2.085   4.686   1.279
 1896WAT     H2 5796   1.992   4.618   1.182
 1897WAT      O 5797   3.529   4.541   1.493
 1897WAT     H1 5798   3.506   4.518   1.403
 1897WAT     H2 5799   3.555   4.633   1.488
 1898WAT      O 5800   2.004   4.386   1.582
 1898WAT     H1 5801   1.914   4.382   1.616
 1898WAT     H2 5802   2.058   4.405   1.659
 1899WAT      O 5803   3.373   4.064   1.771
 1899WAT     H1 5804   3.460   4.065   1.809
 1899WAT     H2 5805   3.374   3.990   1.710
 1900WAT      O 5806   1.866   4.377   0.332
 1900WAT     H1 5807   1.776   4.403   0.314
 1900WAT     H2 5808   1.915   4.404   0.254
 1901WAT      O 5809   3.517   4.449   0.860
 1901WAT     H1 5810   3.570   4.400   0.796
 1901WAT     H2 5811   3.576   4.463   0.934
 1902WAT      O 5812   3.535   4.458   1.212
 1902WAT     H1 5813   3.440   4.454   1.223
 1902WAT     H2 5814   3.553   4.549   1.188
 1903WAT      O 5815   3.466   4.375   0.453
 1903WAT     H1 5816   3.516   4.352   0.532
 1903WAT     H2 5817   3.446   4.291   0.412
 1904WAT      O 5818   2.054   3.813   1.017
 1904WAT     H1 5819   2.119   3.758   0.973
 1904WAT     H2 5820   2.096   3.839   1.099
 1905WAT      O 5821   3.609   4.239   0.707
 1905WAT     H1 5822   3.598   4.223   0.801
 1905WAT     H2 5823   3.685   4.186   0.683
 1906WAT      O 5824   3.444   3.832   1.353
 1906WAT     H1 5825   3.508   3.894   1.389
 1906WAT     H2 5826   3.459   3.836   1.258
 1907WAT      O 5827   3.705   4.099   0.293
 1907WAT     H1 5828   3.626   4.092   0.346
 1907WAT     H2 5829   3.726   4.192   0.292
 1908WAT      O 5830   2.030   3.829   1.291
 1908WAT     H1 5831   1.995   3.874   1.368
 1908WAT     H2 5832   1.996   3.739   1.299
 1909WAT      O 5833   2.190   5.146   1.708
 1909WAT     H1 5834   2.186   5.109   1.796
 1909WAT     H2 5835   2.203   5.240   1.722
 1910WAT      O 5836   2.560   5.301   1.268
 1910WAT     H1 5837   2.536   5.328   1.179
 1910WAT     H2 5838   2.654   5.318   1.273
 1911WAT      O 5839   2.781   3.948   1.643
 1911WAT     H1 5840   2.775   4.007   1.718
 1911WAT     H2 5841   2.875   3.937   1.629
 1912WAT      O 5842   3.045   3.913   1.607
 1912WAT     H1 5843   3.106   3.945   1.541
 1912WAT     H2 5844   3.099   3.865   1.669
 1913WAT      O 5845   2.097   3.781   1.619
 1913WAT     H1 5846   2.152   3.763   1.542
 1913WAT     H2 5847   2.103   3.702   1.672
 1914WAT      O 5848   3.119   3.770   1.240
 1914WAT     H1 5849   3.031   3.803   1.220
 1914WAT     H2 5850   3.108   3.723   1.323
 1915WAT      O 5851   3.209   3.990   1.378
 1915WAT     H1 5852   3.177   3.909   1.340
 1915WAT     H2 5853   3.304   3.986   1.366
 1916WAT      O 5854   2.137   5.177   1.315
 1916WAT     H1 5855   2.065   5.115   1.308
 1916WAT     H2 5856   2.143   5.216   1.228
 1917WAT      O 5857   2.893   3.861   1.134
 1917WAT     H1 5858   2.815   3.909   1.162
 1917WAT     H2 5859   2.864   3.771   1.123
 1918WAT      O 5860   3.349   3.932   0.938
 1918WAT     H1 5861   3.393   3.926   0.854
 1918WAT     H2 5862   3.322   4.023   0.946
 1919WAT      O 5863   3.535   3.895   0.740
 1919WAT     H1 5864   3.529   3.800   0.725
 1919WAT     H2 5865   3.613   3.906   0.794
 1920WAT      O 5866   2.028   3.892   0.386
 1920WAT     H1 5867   2.104   3.903   0.329
 1920WAT     H2 5868   1.982   3.976   0.382
 1921WAT      O 5869   2.682   4.103   0.685
 1921WAT     H1 5870   2.601   4.066   0.651
 1921WAT     H2 5871   2.732   4.028   0.715
 1922WAT      O 5872   3.132   3.770   0.809
 1922WAT     H1 5873   3.192   3.827   0.856
 1922WAT     H2 5874   3.058   3.826   0.787
 1923WAT      O 5875   3.447   3.810   0.336
 1923WAT     H1 5876   3.466   3.900   0.363
 1923WAT     H2 5877   3.368   3.787   0.386
 1924WAT      O 5878   2.265   3.945   0.240
 1924WAT     H1 5879   2.318   3.866   0.227
 1924WAT     H2 5880   2.328   4.012   0.263
 1925WAT      O 5881   2.484   3.918   0.546
 1925WAT     H1 5882   2.421   3.848   0.562
 1925WAT     H2 5883   2.430   3.994   0.524
 1926WAT      O 5884   2.497   3.846   1.789
 1926WAT     H1 5885   2.469   3.897   1.713
 1926WAT     H2 5886   2.535   3.766   1.752
 1927WAT      O 5887   2.302   5.185   0.268
 1927WAT     H1 5888   2.239   5.231   0.323
 1927WAT     H2 5889   2.314   5.100   0.312
 1928WAT      O 5890   3.157   3.788   1.847
 1928WAT     H1 5891   3.146   3.820   1.936
 1928WAT     H2 5892   3.239   3.828   1.817
 1929WAT      O 5893   3.048   2.712   4.516
 1929WAT     H1 5894   3.040   2.621   4.488
 1929WAT     H2 5895   3.006   2.762   4.445
 1930WAT      O 5896   2.861   2.890   4.704
 1930WAT     H1 5897   2.783   2.842   4.733
 1930WAT     H2 5898   2.926   2.822   4.686
 1931WAT      O 5899   2.263   2.921   4.791
 1931WAT     H1 5900   2.179   2.896   4.831
 1931WAT     H2 5901   2.323   2.928   4.865
 1932WAT      O 5902   3.263   3.331   4.582
 1932WAT     H1 5903   3.217   3.253   4.614
 1932WAT     H2 5904   3.344   3.333   4.632
 1933WAT      O 5905   2.261   3.325   4.811
 1933WAT     H1 5906   2.291   3.236   4.793
 1933WAT     H2 5907   2.335   3.380   4.788
 1934WAT      O 5908   2.103   2.417   4.170
 1934WAT     H1 5909   2.015   2.451   4.160
 1934WAT     H2 5910   2.132   2.397   4.081
 1935WAT      O 5911   1.900   2.677   4.758
 1935WAT     H1 5912   1.957   2.600   4.758
 1935WAT     H2 5913   1.900   2.707   4.667
 1936WAT      O 5914   2.886   3.559   4.544
 1936WAT     H1 5915   2.824   3.605   4.487
 1936WAT     H2 5916   2.971   3.575   4.504
 1937WAT      O 5917   2.805   3.158   4.704
 1937WAT     H1 5918   2.798   3.063   4.688
 1937WAT     H2 5919   2.881   3.167   4.762
 1938WAT      O 5920   2.024   2.218   4.937
 1938WAT     H1 5921   2.006   2.128   4.965
 1938WAT     H2 5922   1.984   2.273   5.004
 1939WAT      O 5923   2.908   2.438   4.727
 1939WAT     H1 5924   2.946   2.351   4.716
 1939WAT     H2 5925   2.898   2.472   4.638
 1940WAT      O 5926   2.321   2.276   4.273
 1940WAT     H1 5927   2.332   2.366   4.304
 1940WAT     H2 5928   2.230   2.271   4.244
 1941WAT      O 5929   3.286   2.188   4.420
 1941WAT     H1 5930   3.368   2.139   4.425
 1941WAT     H2 5931   3.290   2.247   4.496
 1942WAT      O 5932   2.086   2.468   4.798
 1942WAT     H1 5933   2.154   2.494   4.860
 1942WAT     H2 5934   2.054   2.384   4.831
 1943WAT      O 5935   2.505   2.572   4.706
 1943WAT     H1 5936   2.556   2.622   4.770
 1943WAT     H2 5937   2.558   2.495   4.689
 1944WAT      O 5938   3.715   2.389   5.077
 1944WAT     H1 5939   3.645   2.428   5.025
 1944WAT     H2 5940   3.742   2.459   5.137
 1945WAT      O 5941   2.334   2.036   5.133
 1945WAT     H1 5942   2.334   2.088   5.053
 1945WAT     H2 5943   2.251   1.989   5.131
 1946WAT      O 5944   2.972   3.048   4.283
 1946WAT     H1 5945   2.910   3.094   4.227
 1946WAT     H2 5946   3.023   3.117   4.325
 1947WAT      O 5947   2.459   3.000   4.951
 1947WAT     H1 5948   2.425   3.063   5.015
 1947WAT     H2 5949   2.476   3.053   4.873
 1948WAT      O 5950   3.310   2.382   4.698
 1948WAT     H1 5951   3.239   2.411   4.756
 1948WAT     H2 5952   3.346   2.463   4.662
 1949WAT      O 5953   2.302   2.207   4.934
 1949WAT     H1 5954   2.336   2.292   4.904
 1949WAT     H2 5955   2.208   2.222   4.945
 1950WAT      O 5956   2.380   3.197   5.132
 1950WAT     H1 5957   2.442   3.265   5.104
 1950WAT     H2 5958   2.294   3.238   5.123
 1951WAT      O 5959   1.909   3.116   4.020
 1951WAT     H1 5960   1.871   3.165   3.947
 1951WAT     H2 5961   1.935   3.183   4.083
 1952WAT      O 5962   3.472   3.344   4.924
 1952WAT     H1 5963   3.403   3.411   4.923
 1952WAT     H2 5964   3.525   3.363   4.847
 1953WAT      O 5965   3.617   2.326   4.737
 1953WAT     H1 5966   3.522   2.330   4.750
 1953WAT     H2 5967   3.649   2.408   4.775
 1954WAT      O 5968   2.670   1.956   4.566
 1954WAT     H1 5969   2.701   1.901   4.495
 1954WAT     H2 5970   2.577   1.970   4.548
 1955WAT      O 5971   3.225   3.528   4.795
 1955WAT     H1 5972   3.226   3.488   4.709
 1955WAT     H2 5973   3.170   3.605   4.785
 1956WAT      O 5974   3.355   3.200   4.304
 1956WAT     H1 5975   3.344   3.106   4.317
 1956WAT     H2 5976   3.354   3.236   4.393
 1957WAT      O 5977   3.165   3.018   4.928
 1957WAT     H1 5978   3.207   2.997   4.845
 1957WAT     H2 5979   3.237   3.044   4.985
 1958WAT      O 5980   2.909   2.763   4.240
 1958WAT     H1 5981   2.816   2.756   4.263
 1958WAT     H2 5982   2.924   2.857   4.228
 1959WAT      O 5983   2.907   2.390   3.939
 1959WAT     H1 5984   2.814   2.406   3.948
 1959WAT     H2 5985   2.939   2.462   3.885
 1960WAT      O 5986   3.560   2.858   4.937
 1960WAT     H1 5987   3.477   2.865   4.890
 1960WAT     H2 5988   3.619   2.917   4.890
 1961WAT      O 5989   3.312   2.919   4.290
 1961WAT     H1 5990   3.250   2.885   4.225
 1961WAT     H2 5991   3.310   2.855   4.361
 1962WAT      O 5992   3.256   2.537   5.032
 1962WAT     H1 5993   3.215   2.619   5.057
 1962WAT     H2 5994   3.183   2.478   5.013
 1963WAT      O 5995   2.469   2.815   4.518
 1963WAT     H1 5996   2.429   2.744   4.468
 1963WAT     H2 5997   2.478   2.781   4.607
 1964WAT      O 5998   2.516   3.184   4.734
 1964WAT     H1 5999   2.486   3.124   4.666
 1964WAT     H2 6000   2.611   3.188   4.723
 1965WAT      O 6001   2.341   2.493   4.896
 1965WAT     H1 6002   2.396   2.504   4.819
 1965WAT     H2 6003   2.392   2.530   4.968
 1966WAT      O 6004   3.325   3.541   5.101
 1966WAT     H1 6005   3.277   3.622   5.081
 1966WAT     H2 6006   3.257   3.476   5.116
 1967WAT      O 6007   2.425   3.158   5.399
 1967WAT     H1 6008   2.336   3.180   5.424
 1967WAT     H2 6009   2.428   3.170   5.305
 1968WAT      O 6010   3.129   2.843   3.991
 1968WAT     H1 6011   3.173   2.759   3.976
 1968WAT     H2 6012   3.201   2.906   4.000
 1969WAT      O 6013   2.308   2.845   5.257
 1969WAT     H1 6014   2.294   2.932   5.294
 1969WAT     H2 6015   2.220   2.811   5.243
 1970WAT      O 6016   2.940   3.337   4.388
 1970WAT     H1 6017   2.984   3.411   4.346
 1970WAT     H2 6018   2.934   3.361   4.480
 1971WAT      O 6019   3.488   1.968   3.822
 1971WAT     H1 6020   3.456   1.978   3.912
 1971WAT     H2 6021   3.564   2.026   3.817
 1972WAT      O 6022   2.139   2.705   4.268
 1972WAT     H1 6023   2.127   2.778   4.207
 1972WAT     H2 6024   2.108   2.628   4.220
 1973WAT      O 6025   1.903   3.022   4.849
 1973WAT     H1 6026   1.911   3.036   4.754
 1973WAT     H2 6027   1.965   2.951   4.868
 1974WAT      O 6028   2.028   3.192   4.490
 1974WAT     H1 6029   1.987   3.206   4.404
 1974WAT     H2 6030   2.117   3.164   4.470
 1975WAT      O 6031   3.623   3.237   5.324
 1975WAT     H1 6032   3.636   3.213   5.232
 1975WAT     H2 6033   3.628   3.154   5.371
 1976WAT      O 6034   3.010   3.607   5.181
 1976WAT     H1 6035   3.061   3.598   5.261
 1976WAT     H2 6036   2.925   3.642   5.210
 1977WAT      O 6037   3.207   3.636   4.123
 1977WAT     H1 6038   3.191   3.607   4.213
 1977WAT     H2 6039   3.191   3.558   4.070
 1978WAT      O 6040   2.455   3.613   4.301
 1978WAT     H1 6041   2.437   3.522   4.280
 1978WAT     H2 6042   2.369   3.649   4.325
 1979WAT      O 6043   3.177   3.386   3.979
 1979WAT     H1 6044   3.108   3.386   3.913
 1979WAT     H2 6045   3.252   3.344   3.936
 1980WAT      O 6046   3.134   3.549   4.387
 1980WAT     H1 6047   3.179   3.471   4.418
 1980WAT     H2 6048   3.168   3.620   4.441
 1981WAT      O 6049   3.609   2.442   5.420
 1981WAT     H1 6050   3.547   2.493   5.367
 1981WAT     H2 6051   3.577   2.352   5.414
 1982WAT      O 6052   1.909   3.126   5.103
 1982WAT     H1 6053   1.925   3.079   5.021
 1982WAT     H2 6054   1.955   3.075   5.169
 1983WAT      O 6055   2.386   2.039   4.606
 1983WAT     H1 6056   2.342   2.117   4.573
 1983WAT     H2 6057   2.442   2.072   4.677
 1984WAT      O 6058   2.815   2.326   5.167
 1984WAT     H1 6059   2.769   2.347   5.248
 1984WAT     H2 6060   2.775   2.245   5.136
 1985WAT      O 6061   3.315   2.448   5.280
 1985WAT     H1 6062   3.230   2.418   5.312
 1985WAT     H2 6063   3.299   2.472   5.188
 1986WAT      O 6064   2.698   2.001   4.094
 1986WAT     H1 6065   2.635   2.001   4.167
 1986WAT     H2 6066   2.689   1.915   4.055
 1987WAT      O 6067   2.590   2.094   4.792
 1987WAT     H1 6068   2.620   2.184   4.784
 1987WAT     H2 6069   2.645   2.045   4.731
 1988WAT      O 6070   2.365   2.552   4.379
 1988WAT     H1 6071   2.343   2.530   4.470
 1988WAT     H2 6072   2.287   2.595   4.345
 1989WAT      O 6073   3.088   2.552   4.239
 1989WAT     H1 6074   3.028   2.625   4.221
 1989WAT     H2 6075   3.143   2.546   4.161
 1990WAT      O 6076   2.949   2.416   4.442
 1990WAT     H1 6077   2.988   2.448   4.361
 1990WAT     H2 6078   2.985   2.328   4.454
 1991WAT      O 6079   2.122   2.283   5.261
 1991WAT     H1 6080   2.083   2.367   5.282
 1991WAT     H2 6081   2.053   2.219   5.280
 1992WAT      O 6082   1.852   2.075   4.664
 1992WAT     H1 6083   1.824   2.132   4.736
 1992WAT     H2 6084   1.927   2.027   4.701
 1993WAT      O 6085   1.871   2.469   3.785
 1993WAT     H1 6086   1.863   2.563   3.800
 1993WAT     H2 6087   1.836   2.455   3.698
 1994WAT      O 6088   3.007   2.675   4.852
 1994WAT     H1 6089   2.934   2.726   4.886
 1994WAT     H2 6090   2.968   2.593   4.821
 1995WAT      O 6091   2.651   2.342   4.692
 1995WAT     H1 6092   2.651   2.298   4.607
 1995WAT     H2 6093   2.741   2.375   4.703
 1996WAT      O 6094   2.236   2.331   4.588
 1996WAT     H1 6095   2.202   2.378   4.664
 1996WAT     H2 6096   2.160   2.285   4.552
 1997WAT      O 6097   2.657   2.443   3.991
 1997WAT     H1 6098   2.669   2.438   4.086
 1997WAT     H2 6099   2.619   2.529   3.976
 1998WAT      O 6100   3.054   2.220   4.793
 1998WAT     H1 6101   3.055   2.265   4.877
 1998WAT     H2 6102   3.029   2.130   4.814
 1999WAT      O 6103   2.559   2.674   3.931
 1999WAT     H1 6104   2.502   2.629   3.868
 1999WAT     H2 6105   2.629   2.709   3.878
 2000WAT      O 6106   2.066   3.064   5.319
 2000WAT     H1 6107   2.028   3.000   5.379
 2000WAT     H2 6108   2.097   3.134   5.376
 2001WAT      O 6109   2.681   2.748   4.867
 2001WAT     H1 6110   2.718   2.701   4.941
 2001WAT     H2 6111   2.662   2.836   4.901
 2002WAT      O 6112   1.968   2.223   4.480
 2002WAT     H1 6113   1.939   2.186   4.563
 2002WAT     H2 6114   1.961   2.150   4.418
 2003WAT      O 6115   2.460   2.653   5.099
 2003WAT     H1 6116   2.430   2.740   5.121
 2003WAT     H2 6117   2.556   2.659   5.102
 2004WAT      O 6118   2.313   3.073   4.158
 2004WAT     H1 6119   2.236   3.019   4.142
 2004WAT     H2 6120   2.386   3.021   4.124
 2005WAT      O 6121   3.389   2.973   4.738
 2005WAT     H1 6122   3.461   3.022   4.698
 2005WAT     H2 6123   3.369   2.905   4.673
 2006WAT      O 6124   2.935   2.112   4.152
 2006WAT     H1 6125   2.854   2.062   4.144
 2006WAT     H2 6126   2.916   2.196   4.110
 2007WAT      O 6127   2.927   2.980   5.326
 2007WAT     H1 6128   2.920   2.888   5.301
 2007WAT     H2 6129   2.864   2.990   5.398
 2008WAT      O 6130   3.206   2.549   3.981
 2008WAT     H1 6131   3.295   2.581   3.964
 2008WAT     H2 6132   3.204   2.462   3.942
 2009WAT      O 6133   2.317   3.040   4.522
 2009WAT     H1 6134   2.369   2.960   4.517
 2009WAT     H2 6135   2.272   3.034   4.606
 2010WAT      O 6136   2.806   3.167   4.049
 2010WAT     H1 6137   2.840   3.241   4.000
 2010WAT     H2 6138   2.723   3.198   4.086
 2011WAT      O 6139   2.066   2.737   5.213
 2011WAT     H1 6140   2.030   2.803   5.272
 2011WAT     H2 6141   2.036   2.653   5.250
 2012WAT      O 6142   2.920   3.262   5.301
 2012WAT     H1 6143   2.922   3.169   5.279
 2012WAT     H2 6144   2.850   3.271   5.365
 2013WAT      O 6145   3.434   2.680   3.928
 2013WAT     H1 6146   3.425   2.724   3.843
 2013WAT     H2 6147   3.506   2.726   3.972
 2014WAT      O 6148   3.541   2.926   5.236
 2014WAT     H1 6149   3.469   2.985   5.216
 2014WAT     H2 6150   3.594   2.925   5.156
 2015WAT      O 6151   3.536   3.366   4.201
 2015WAT     H1 6152   3.472   3.300   4.229
 2015WAT     H2 6153   3.498   3.406   4.123
 2016WAT      O 6154   3.094   3.099   4.586
 2016WAT     H1 6155   3.130   3.039   4.520
 2016WAT     H2 6156   3.006   3.066   4.603
 2017WAT      O 6157   2.703   3.175   4.326
 2017WAT     H1 6158   2.772   3.229   4.365
 2017WAT     H2 6159   2.624   3.229   4.330
 2018WAT      O 6160   1.917   2.736   3.876
 2018WAT     H1 6161   2.004   2.765   3.904
 2018WAT     H2 6162   1.868   2.818   3.864
 2019WAT      O 6163   2.633   2.875   4.288
 2019WAT     H1 6164   2.679   2.956   4.310
 2019WAT     H2 6165   2.598   2.843   4.371
 2020WAT      O 6166   2.864   3.426   5.011
 2020WAT     H1 6167   2.928   3.447   5.078
 2020WAT     H2 6168   2.900   3.350   4.965
 2021WAT      O 6169   2.223   1.910   4.335
 2021WAT     H1 6170   2.211   1.909   4.430
 2021WAT     H2 6171   2.141   1.943   4.300
 2022WAT      O 6172   2.991   3.227   4.882
 2022WAT     H1 6173   3.055   3.157   4.894
 2022WAT     H2 6174   3.043   3.305   4.864
 2023WAT      O 6175   3.375   3.255   3.855
 2023WAT     H1 6176   3.353   3.183   3.914
 2023WAT     H2 6177   3.336   3.230   3.771
 2024WAT      O 6178   3.168   3.307   5.203
 2024WAT     H1 6179   3.202   3.365   5.271
 2024WAT     H2 6180   3.076   3.293   5.226
 2025WAT      O 6181   1.954   3.658   3.932
 2025WAT     H1 6182   1.990   3.718   3.867
 2025WAT     H2 6183   1.940   3.712   4.010
 2026WAT      O 6184   1.923   2.085   5.281
 2026WAT     H1 6185   1.852   2.105   5.342
 2026WAT     H2 6186   1.965   2.008   5.318
 2027WAT      O 6187   3.334   3.047   4.021
 2027WAT     H1 6188   3.305   3.093   4.100
 2027WAT     H2 6189   3.413   3.001   4.048
 2028WAT      O 6190   1.952   3.484   5.380
 2028WAT     H1 6191   1.963   3.390   5.366
 2028WAT     H2 6192   1.887   3.511   5.315
 2029WAT      O 6193   2.555   3.396   4.014
 2029WAT     H1 6194   2.554   3.469   3.952
 2029WAT     H2 6195   2.463   3.371   4.023
 2030WAT      O 6196   2.115   2.918   4.088
 2030WAT     H1 6197   2.055   2.992   4.089
 2030WAT     H2 6198   2.163   2.927   4.006
 2031WAT      O 6199   3.073   2.335   5.056
 2031WAT     H1 6200   3.110   2.253   5.089
 2031WAT     H2 6201   2.987   2.341   5.098
 2032WAT      O 6202   3.409   2.230   4.137
 2032WAT     H1 6203   3.346   2.241   4.066
 2032WAT     H2 6204   3.360   2.252   4.216
 2033WAT      O 6205   2.854   3.402   3.880
 2033WAT     H1 6206   2.864   3.382   3.787
 2033WAT     H2 6207   2.764   3.377   3.901
 2034WAT      O 6208   2.606   2.458   4.279
 2034WAT     H1 6209   2.535   2.505   4.323
 2034WAT     H2 6210   2.635   2.392   4.342
 2035WAT      O 6211   2.769   2.600   5.078
 2035WAT     H1 6212   2.819   2.648   5.145
 2035WAT     H2 6213   2.783   2.508   5.099
 2036WAT      O 6214   3.009   2.131   4.422
 2036WAT     H1 6215   2.997   2.133   4.328
 2036WAT     H2 6216   3.104   2.135   4.434
 2037WAT      O 6217   2.718   3.654   4.350
 2037WAT     H1 6218   2.744   3.650   4.258
 2037WAT     H2 6219   2.623   3.642   4.349
 2038WAT      O 6220   2.427   2.289   4.016
 2038WAT     H1 6221   2.511   2.333   4.009
 2038WAT     H2 6222   2.390   2.320   4.099
 2039WAT      O 6223   3.489   2.222   5.163
 2039WAT     H1 6224   3.439   2.296   5.197
 2039WAT     H2 6225   3.571   2.261   5.131
 2040WAT      O 6226   3.319   2.746   4.507
 2040WAT     H1 6227   3.225   2.748   4.525
 2040WAT     H2 6228   3.350   2.667   4.552
 2041WAT      O 6229   2.316   2.914   3.863
 2041WAT     H1 6230   2.393   2.903   3.920
 2041WAT     H2 6231   2.324   2.845   3.798
 2042WAT      O 6232   2.186   2.658   3.932
 2042WAT     H1 6233   2.194   2.563   3.943
 2042WAT     H2 6234   2.275   2.691   3.942
 2043WAT      O 6235   3.519   3.463   4.675
 2043WAT     H1 6236   3.531   3.546   4.722
 2043WAT     H2 6237   3.606   3.442   4.640
 2044WAT      O 6238   2.266   3.673   4.642
 2044WAT     H1 6239   2.340   3.618   4.669
 2044WAT     H2 6240   2.304   3.759   4.628
 2045WAT      O 6241   1.955   3.279   4.229
 2045WAT     H1 6242   1.862   3.303   4.229
 2045WAT     H2 6243   2.001   3.362   4.217
 2046WAT      O 6244   2.577   3.590   3.824
 2046WAT     H1 6245   2.656   3.619   3.779
 2046WAT     H2 6246   2.525   3.547   3.756
 2047WAT      O 6247   3.482   3.513   3.967
 2047WAT     H1 6248   3.454   3.471   3.885
 2047WAT     H2 6249   3.463   3.605   3.955
 2048WAT      O 6250   2.629   3.112   3.811
 2048WAT     H1 6251   2.618   3.050   3.883
 2048WAT     H2 6252   2.612   3.060   3.732
 2049WAT      O 6253   2.644   2.980   5.409
 2049WAT     H1 6254   2.567   3.037   5.400
 2049WAT     H2 6255   2.662   2.951   5.319
 2050WAT      O 6256   2.953   3.018   3.871
 2050WAT     H1 6257   2.898   3.063   3.936
 2050WAT     H2 6258   3.015   2.968   3.924
 2051WAT      O 6259   2.520   2.914   4.061
 2051WAT     H1 6260   2.562   2.897   4.145
 2051WAT     H2 6261   2.532   2.833   4.011
 2052WAT      O 6262   2.336   2.512   5.342
 2052WAT     H1 6263   2.283   2.463   5.279
 2052WAT     H2 6264   2.403   2.555   5.288
 2053WAT      O 6265   2.771   2.816   3.786
 2053WAT     H1 6266   2.823   2.745   3.749
 2053WAT     H2 6267   2.836   2.880   3.816
 2054WAT      O 6268   3.226   2.959   5.318
 2054WAT     H1 6269   3.267   2.974   5.403
 2054WAT     H2 6270   3.132   2.971   5.334
 2055WAT      O 6271   2.385   2.209   5.349
 2055WAT     H1 6272   2.375   2.147   5.277
 2055WAT     H2 6273   2.327   2.281   5.327
 2056WAT      O 6274   2.661   2.064   5.053
 2056WAT     H1 6275   2.616   2.067   4.968
 2056WAT     H2 6276   2.598   2.024   5.112
 2057WAT      O 6277   2.702   2.954   5.115
 2057WAT     H1 6278   2.744   3.038   5.098
 2057WAT     H2 6279   2.610   2.968   5.092
 2058WAT      O 6280   2.935   2.727   5.253
 2058WAT     H1 6281   2.947   2.667   5.327
 2058WAT     H2 6282   3.021   2.731   5.211
 2059WAT      O 6283   3.169   2.782   5.111
 2059WAT     H1 6284   3.117   2.835   5.051
 2059WAT     H2 6285   3.204   2.846   5.174
 2060WAT      O 6286   2.409   2.521   3.755
 2060WAT     H1 6287   2.389   2.435   3.792
 2060WAT     H2 6288   2.392   2.513   3.662
 2061WAT      O 6289   2.487   3.584   5.226
 2061WAT     H1 6290   2.433   3.657   5.195
 2061WAT     H2 6291   2.512   3.537   5.147
 2062WAT      O 6292   3.157   2.002   4.008
 2062WAT     H1 6293   3.185   1.918   4.044
 2062WAT     H2 6294   3.080   2.026   4.060
 2063WAT      O 6295   2.289   2.231   3.754
 2063WAT     H1 6296   2.319   2.232   3.663
 2063WAT     H2 6297   2.363   2.196   3.804
 2064WAT      O 6298   2.773   3.708   5.252
 2064WAT     H1 6299   2.765   3.798   5.283
 2064WAT     H2 6300   2.682   3.676   5.250
 2065WAT      O 6301   2.611   2.126   3.853
 2065WAT     H1 6302   2.576   2.058   3.795
 2065WAT     H2 6303   2.631   2.080   3.934
 2066WAT      O 6304   2.827   3.624   4.015
 2066WAT     H1 6305   2.917   3.658   4.017
 2066WAT     H2 6306   2.831   3.552   3.952
 2067WAT      O 6307   2.191   3.162   3.837
 2067WAT     H1 6308   2.235   3.216   3.903
 2067WAT     H2 6309   2.240   3.079   3.838
 2068WAT      O 6310   1.913   3.441   4.583
 2068WAT     H1 6311   1.946   3.354   4.559
 2068WAT     H2 6312   1.956   3.461   4.666
 2069WAT      O 6313   2.372   3.274   4.349
 2069WAT     H1 6314   2.342   3.261   4.439
 2069WAT     H2 6315   2.362   3.188   4.308
 2070WAT      O 6316   1.962   3.527   4.856
 2070WAT     H1 6317   1.918   3.545   4.940
 2070WAT     H2 6318   2.018   3.603   4.842
 2071WAT      O 6319   3.525   3.478   5.285
 2071WAT     H1 6320   3.465   3.483   5.211
 2071WAT     H2 6321   3.538   3.384   5.298
 2072WAT      O 6322   3.649   3.252   3.819
 2072WAT     H1 6323   3.566   3.258   3.866
 2072WAT     H2 6324   3.667   3.341   3.789
 2073WAT      O 6325   3.595   2.926   4.069
 2073WAT     H1 6326   3.671   2.983   4.080
 2073WAT     H2 6327   3.596   2.869   4.146
 2074WAT      O 6328   1.945   2.779   4.492
 2074WAT     H1 6329   1.879   2.752   4.428
 2074WAT     H2 6330   2.029   2.768   4.447
 2075WAT      O 6331   3.696   3.012   4.554
 2075WAT     H1 6332   3.733   2.933   4.513
 2075WAT     H2 6333   3.760   3.081   4.536
 2076WAT      O 6334   3.394   3.150   5.095
 2076WAT     H1 6335   3.312   3.193   5.121
 2076WAT     H2 6336   3.435   3.211   5.034
 2077WAT      O 6337   3.600   2.956   3.785
 2077WAT     H1 6338   3.628   3.046   3.772
 2077WAT     H2 6339   3.581   2.949   3.879
 2078WAT      O 6340   3.240   2.258   3.915
 2078WAT     H1 6341   3.282   2.239   3.831
 2078WAT     H2 6342   3.209   2.173   3.946
 2079WAT      O 6343   3.590   2.749   4.284
 2079WAT     H1 6344   3.552   2.672   4.241
 2079WAT     H2 6345   3.517   2.787   4.333
 2080WAT      O 6346   2.049   2.817   4.946
 2080WAT     H1 6347   2.085   2.808   5.034
 2080WAT     H2 6348   1.992   2.741   4.936
 2081WAT      O 6349   3.529   2.664   5.248
 2081WAT     H1 6350   3.506   2.641   5.158
 2081WAT     H2 6351   3.555   2.756   5.243
 2082WAT      O 6352   2.004   2.508   5.337
 2082WAT     H1 6353   1.914   2.505   5.371
 2082WAT     H2 6354   2.058   2.528   5.413
 2083WAT      O 6355   1.866   2.500   4.087
 2083WAT     H1 6356   1.776   2.526   4.069
 2083WAT     H2 6357   1.915   2.527   4.009
 2084WAT      O 6358   3.517   2.572   4.614
 2084WAT     H1 6359   3.570   2.522   4.551
 2084WAT     H2 6360   3.576   2.585   4.689
 2085WAT      O 6361   3.535   2.580   4.967
 2085WAT     H1 6362   3.440   2.577   4.978
 2085WAT     H2 6363   3.553   2.671   4.943
 2086WAT      O 6364   2.121   2.405   3.878
 2086WAT     H1 6365   2.192   2.363   3.829
 2086WAT     H2 6366   2.049   2.412   3.814
 2087WAT      O 6367   2.085   2.011   3.782
 2087WAT     H1 6368   2.158   2.065   3.813
 2087WAT     H2 6369   2.113   1.983   3.694
 2088WAT      O 6370   3.466   2.498   4.208
 2088WAT     H1 6371   3.516   2.474   4.287
 2088WAT     H2 6372   3.446   2.414   4.167
 2089WAT      O 6373   2.054   1.936   4.772
 2089WAT     H1 6374   2.119   1.881   4.728
 2089WAT     H2 6375   2.096   1.961   4.854
 2090WAT      O 6376   3.609   2.361   4.462
 2090WAT     H1 6377   3.598   2.346   4.556
 2090WAT     H2 6378   3.685   2.308   4.437
 2091WAT      O 6379   3.444   1.955   5.108
 2091WAT     H1 6380   3.508   2.016   5.144
 2091WAT     H2 6381   3.459   1.959   5.013
 2092WAT      O 6382   3.698   2.144   3.786
 2092WAT     H1 6383   3.791   2.131   3.765
 2092WAT     H2 6384   3.696   2.152   3.881
 2093WAT      O 6385   3.705   2.221   4.048
 2093WAT     H1 6386   3.626   2.215   4.101
 2093WAT     H2 6387   3.726   2.315   4.047
 2094WAT      O 6388   3.400   3.625   4.448
 2094WAT     H1 6389   3.459   3.593   4.380
 2094WAT     H2 6390   3.425   3.578   4.527
 2095WAT      O 6391   2.030   1.951   5.046
 2095WAT     H1 6392   1.995   1.997   5.123
 2095WAT     H2 6393   1.996   1.862   5.054
 2096WAT      O 6394   2.560   3.424   5.023
 2096WAT     H1 6395   2.536   3.451   4.934
 2096WAT     H2 6396   2.654   3.441   5.028
 2097WAT      O 6397   3.045   2.036   5.362
 2097WAT     H1 6398   3.106   2.068   5.296
 2097WAT     H2 6399   3.099   1.988   5.424
 2098WAT      O 6400   3.686   3.626   5.103
 2098WAT     H1 6401   3.637   3.666   5.031
 2098WAT     H2 6402   3.625   3.563   5.142
 2099WAT      O 6403   2.097   1.904   5.374
 2099WAT     H1 6404   2.152   1.886   5.297
 2099WAT     H2 6405   2.103   1.825   5.427
 2100WAT      O 6406   2.174   3.563   5.175
 2100WAT     H1 6407   2.115   3.550   5.248
 2100WAT     H2 6408   2.173   3.479   5.128
 2101WAT      O 6409   3.119   1.892   4.995
 2101WAT     H1 6410   3.031   1.926   4.975
 2101WAT     H2 6411   3.108   1.845   5.077
 2102WAT      O 6412   3.209   2.113   5.133
 2102WAT     H1 6413   3.177   2.032   5.095
 2102WAT     H2 6414   3.304   2.109   5.121
 2103WAT      O 6415   3.455   3.690   4.831
 2103WAT     H1 6416   3.409   3.765   4.793
 2103WAT     H2 6417   3.392   3.618   4.825
 2104WAT      O 6418   2.137   3.300   5.070
 2104WAT     H1 6419   2.065   3.238   5.063
 2104WAT     H2 6420   2.143   3.339   4.983
 2105WAT      O 6421   2.498   3.521   4.748
 2105WAT     H1 6422   2.549   3.460   4.696
 2105WAT     H2 6423   2.563   3.571   4.797
 2106WAT      O 6424   2.772   3.610   4.831
 2106WAT     H1 6425   2.800   3.585   4.743
 2106WAT     H2 6426   2.823   3.555   4.890
 2107WAT      O 6427   2.893   1.984   4.889
 2107WAT     H1 6428   2.815   2.031   4.917
 2107WAT     H2 6429   2.864   1.894   4.878
 2108WAT      O 6430   3.349   2.054   4.693
 2108WAT     H1 6431   3.393   2.049   4.609
 2108WAT     H2 6432   3.322   2.146   4.700
 2109WAT      O 6433   3.535   2.017   4.494
 2109WAT     H1 6434   3.529   1.923   4.480
 2109WAT     H2 6435   3.613   2.028   4.549
 2110WAT      O 6436   1.966   3.631   4.391
 2110WAT     H1 6437   1.949   3.568   4.460
 2110WAT     H2 6438   1.879   3.652   4.356
 2111WAT      O 6439   2.028   2.015   4.141
 2111WAT     H1 6440   2.104   2.026   4.084
 2111WAT     H2 6441   1.982   2.098   4.136
 2112WAT      O 6442   2.682   2.226   4.440
 2112WAT     H1 6443   2.601   2.188   4.406
 2112WAT     H2 6444   2.732   2.150   4.470
 2113WAT      O 6445   3.132   1.892   4.564
 2113WAT     H1 6446   3.192   1.950   4.611
 2113WAT     H2 6447   3.058   1.949   4.542
 2114WAT      O 6448   3.447   1.933   4.091
 2114WAT     H1 6449   3.466   2.022   4.118
 2114WAT     H2 6450   3.368   1.909   4.141
 2115WAT      O 6451   2.126   3.501   4.135
 2115WAT     H1 6452   2.074   3.539   4.065
 2115WAT     H2 6453   2.119   3.563   4.207
 2116WAT      O 6454   2.265   2.067   3.995
 2116WAT     H1 6455   2.318   1.988   3.982
 2116WAT     H2 6456   2.328   2.135   4.018
 2117WAT      O 6457   2.484   2.041   4.300
 2117WAT     H1 6458   2.421   1.971   4.317
 2117WAT     H2 6459   2.430   2.117   4.279
 2118WAT      O 6460   3.602   3.657   4.267
 2118WAT     H1 6461   3.619   3.588   4.203
 2118WAT     H2 6462   3.532   3.709   4.228
 2119WAT      O 6463   2.386   3.695   4.023
 2119WAT     H1 6464   2.459   3.667   3.968
 2119WAT     H2 6465   2.412   3.672   4.112
 2120WAT      O 6466   2.302   3.307   4.023
 2120WAT     H1 6467   2.239   3.354   4.078
 2120WAT     H2 6468   2.314   3.223   4.067
 2121WAT      O 6469   2.103   2.417   2.292
 2121WAT     H1 6470   2.015   2.451   2.282
 2121WAT     H2 6471   2.132   2.397   2.203
 2122WAT      O 6472   2.886   3.559   2.666
 2122WAT     H1 6473   2.824   3.605   2.609
 2122WAT     H2 6474   2.971   3.575   2.626
 2123WAT      O 6475   2.024   2.218   3.059
 2123WAT     H1 6476   2.006   2.128   3.087
 2123WAT     H2 6477   1.984   2.273   3.127
 2124WAT      O 6478   2.321   2.276   2.396
 2124WAT     H1 6479   2.332   2.366   2.426
 2124WAT     H2 6480   2.230   2.271   2.367
 2125WAT      O 6481   2.505   2.572   2.829
 2125WAT     H1 6482   2.556   2.622   2.893
 2125WAT     H2 6483   2.558   2.495   2.811
 2126WAT      O 6484   2.334   2.036   3.256
 2126WAT     H1 6485   2.334   2.088   3.175
 2126WAT     H2 6486   2.251   1.989   3.253
 2127WAT      O 6487   2.302   2.207   3.056
 2127WAT     H1 6488   2.336   2.292   3.027
 2127WAT     H2 6489   2.208   2.222   3.068
 2128WAT      O 6490   2.380   3.197   3.255
 2128WAT     H1 6491   2.442   3.265   3.227
 2128WAT     H2 6492   2.294   3.238   3.246
 2129WAT      O 6493   1.909   3.116   2.143
 2129WAT     H1 6494   1.871   3.165   2.070
 2129WAT     H2 6495   1.935   3.183   2.206
 2130WAT      O 6496   3.472   3.344   3.046
 2130WAT     H1 6497   3.403   3.411   3.046
 2130WAT     H2 6498   3.525   3.363   2.970
 2131WAT      O 6499   2.670   1.956   2.689
 2131WAT     H1 6500   2.701   1.901   2.617
 2131WAT     H2 6501   2.577   1.970   2.671
 2132WAT      O 6502   3.225   3.528   2.918
 2132WAT     H1 6503   3.226   3.488   2.831
 2132WAT     H2 6504   3.170   3.605   2.907
 2133WAT      O 6505   3.165   3.018   3.051
 2133WAT     H1 6506   3.207   2.997   2.967
 2133WAT     H2 6507   3.237   3.044   3.108
 2134WAT      O 6508   2.907   2.390   2.062
 2134WAT     H1 6509   2.814   2.406   2.071
 2134WAT     H2 6510   2.939   2.462   2.007
 2135WAT      O 6511   3.325   3.541   3.223
 2135WAT     H1 6512   3.277   3.622   3.204
 2135WAT     H2 6513   3.257   3.476   3.238
 2136WAT      O 6514   2.425   3.158   3.522
 2136WAT     H1 6515   2.336   3.180   3.547
 2136WAT     H2 6516   2.428   3.170   3.427
 2137WAT      O 6517   2.488   3.439   3.600
 2137WAT     H1 6518   2.485   3.480   3.514
 2137WAT     H2 6519   2.472   3.346   3.584
 2138WAT      O 6520   3.488   1.968   1.945
 2138WAT     H1 6521   3.456   1.978   2.035
 2138WAT     H2 6522   3.564   2.026   1.940
 2139WAT      O 6523   3.683   3.518   3.730
 2139WAT     H1 6524   3.731   3.565   3.798
 2139WAT     H2 6525   3.745   3.511   3.658
 2140WAT      O 6526   3.010   3.607   3.303
 2140WAT     H1 6527   3.061   3.598   3.383
 2140WAT     H2 6528   2.925   3.642   3.332
 2141WAT      O 6529   3.207   3.636   2.246
 2141WAT     H1 6530   3.191   3.607   2.336
 2141WAT     H2 6531   3.191   3.558   2.192
 2142WAT      O 6532   2.455   3.613   2.424
 2142WAT     H1 6533   2.437   3.522   2.402
 2142WAT     H2 6534   2.369   3.649   2.448
 2143WAT      O 6535   3.177   3.386   2.102
 2143WAT     H1 6536   3.108   3.386   2.036
 2143WAT     H2 6537   3.252   3.344   2.059
 2144WAT      O 6538   3.134   3.549   2.509
 2144WAT     H1 6539   3.179   3.471   2.541
 2144WAT     H2 6540   3.168   3.620   2.564
 2145WAT      O 6541   3.609   2.442   3.543
 2145WAT     H1 6542   3.547   2.493   3.490
 2145WAT     H2 6543   3.577   2.352   3.537
 2146WAT      O 6544   2.386   2.039   2.729
 2146WAT     H1 6545   2.342   2.117   2.696
 2146WAT     H2 6546   2.442   2.072   2.800
 2147WAT      O 6547   2.815   2.326   3.289
 2147WAT     H1 6548   2.769   2.347   3.370
 2147WAT     H2 6549   2.775   2.245   3.259
 2148WAT      O 6550   3.315   2.448   3.402
 2148WAT     H1 6551   3.230   2.418   3.434
 2148WAT     H2 6552   3.299   2.472   3.311
 2149WAT      O 6553   3.024   2.598   3.612
 2149WAT     H1 6554   3.057   2.515   3.578
 2149WAT     H2 6555   3.103   2.650   3.627
 2150WAT      O 6556   2.698   2.001   2.217
 2150WAT     H1 6557   2.635   2.001   2.289
 2150WAT     H2 6558   2.689   1.915   2.177
 2151WAT      O 6559   2.590   2.094   2.915
 2151WAT     H1 6560   2.620   2.184   2.907
 2151WAT     H2 6561   2.645   2.045   2.853
 2152WAT      O 6562   2.609   2.641   3.568
 2152WAT     H1 6563   2.600   2.547   3.553
 2152WAT     H2 6564   2.693   2.664   3.529
 2153WAT      O 6565   2.122   2.283   3.384
 2153WAT     H1 6566   2.083   2.367   3.404
 2153WAT     H2 6567   2.053   2.219   3.403
 2154WAT      O 6568   2.780   2.291   3.691
 2154WAT     H1 6569   2.711   2.272   3.754
 2154WAT     H2 6570   2.854   2.319   3.744
 2155WAT      O 6571   1.852   2.075   2.787
 2155WAT     H1 6572   1.824   2.132   2.858
 2155WAT     H2 6573   1.927   2.027   2.823
 2156WAT      O 6574   1.871   2.469   1.908
 2156WAT     H1 6575   1.863   2.563   1.922
 2156WAT     H2 6576   1.836   2.455   1.820
 2157WAT      O 6577   2.651   2.342   2.815
 2157WAT     H1 6578   2.651   2.298   2.730
 2157WAT     H2 6579   2.741   2.375   2.825
 2158WAT      O 6580   2.236   2.331   2.711
 2158WAT     H1 6581   2.202   2.378   2.786
 2158WAT     H2 6582   2.160   2.285   2.675
 2159WAT      O 6583   3.396   1.962   3.499
 2159WAT     H1 6584   3.429   1.888   3.552
 2159WAT     H2 6585   3.400   1.930   3.409
 2160WAT      O 6586   2.066   3.064   3.441
 2160WAT     H1 6587   2.028   3.000   3.501
 2160WAT     H2 6588   2.097   3.134   3.498
 2161WAT      O 6589   1.968   2.223   2.602
 2161WAT     H1 6590   1.939   2.186   2.686
 2161WAT     H2 6591   1.961   2.150   2.541
 2162WAT      O 6592   2.460   2.653   3.221
 2162WAT     H1 6593   2.430   2.740   3.244
 2162WAT     H2 6594   2.556   2.659   3.225
 2163WAT      O 6595   2.935   2.112   2.274
 2163WAT     H1 6596   2.854   2.062   2.267
 2163WAT     H2 6597   2.916   2.196   2.233
 2164WAT      O 6598   2.927   2.980   3.449
 2164WAT     H1 6599   2.920   2.888   3.423
 2164WAT     H2 6600   2.864   2.990   3.520
 2165WAT      O 6601   2.806   3.167   2.172
 2165WAT     H1 6602   2.840   3.241   2.122
 2165WAT     H2 6603   2.723   3.198   2.208
 2166WAT      O 6604   2.386   2.782   3.624
 2166WAT     H1 6605   2.356   2.797   3.535
 2166WAT     H2 6606   2.463   2.726   3.615
 2167WAT      O 6607   2.920   3.262   3.424
 2167WAT     H1 6608   2.922   3.169   3.402
 2167WAT     H2 6609   2.850   3.271   3.488
 2168WAT      O 6610   3.434   2.680   2.051
 2168WAT     H1 6611   3.425   2.724   1.966
 2168WAT     H2 6612   3.506   2.726   2.094
 2169WAT      O 6613   3.536   3.366   2.324
 2169WAT     H1 6614   3.472   3.300   2.351
 2169WAT     H2 6615   3.498   3.406   2.246
 2170WAT      O 6616   1.917   2.736   1.998
 2170WAT     H1 6617   2.004   2.765   2.027
 2170WAT     H2 6618   1.868   2.818   1.987
 2171WAT      O 6619   2.864   3.426   3.133
 2171WAT     H1 6620   2.928   3.447   3.201
 2171WAT     H2 6621   2.900   3.350   3.088
 2172WAT      O 6622   2.223   1.910   2.458
 2172WAT     H1 6623   2.211   1.909   2.552
 2172WAT     H2 6624   2.141   1.943   2.422
 2173WAT      O 6625   2.991   3.227   3.005
 2173WAT     H1 6626   3.055   3.157   3.016
 2173WAT     H2 6627   3.043   3.305   2.987
 2174WAT      O 6628   3.375   3.255   1.977
 2174WAT     H1 6629   3.353   3.183   2.037
 2174WAT     H2 6630   3.336   3.230   1.894
 2175WAT      O 6631   3.168   3.307   3.325
 2175WAT     H1 6632   3.202   3.365   3.393
 2175WAT     H2 6633   3.076   3.293   3.348
 2176WAT      O 6634   1.954   3.658   2.055
 2176WAT     H1 6635   1.990   3.718   1.989
 2176WAT     H2 6636   1.940   3.712   2.132
 2177WAT      O 6637   1.923   2.085   3.404
 2177WAT     H1 6638   1.852   2.105   3.464
 2177WAT     H2 6639   1.965   2.008   3.441
 2178WAT      O 6640   1.952   3.484   3.502
 2178WAT     H1 6641   1.963   3.390   3.488
 2178WAT     H2 6642   1.887   3.511   3.437
 2179WAT      O 6643   2.751   3.311   3.642
 2179WAT     H1 6644   2.719   3.240   3.697
 2179WAT     H2 6645   2.684   3.379   3.650
 2180WAT      O 6646   2.555   3.396   2.137
 2180WAT     H1 6647   2.554   3.469   2.075
 2180WAT     H2 6648   2.463   3.371   2.146
 2181WAT      O 6649   3.073   2.335   3.179
 2181WAT     H1 6650   3.110   2.253   3.211
 2181WAT     H2 6651   2.987   2.341   3.220
 2182WAT      O 6652   3.409   2.230   2.259
 2182WAT     H1 6653   3.346   2.241   2.188
 2182WAT     H2 6654   3.360   2.252   2.338
 2183WAT      O 6655   2.854   3.402   2.003
 2183WAT     H1 6656   2.864   3.382   1.910
 2183WAT     H2 6657   2.764   3.377   2.023
 2184WAT      O 6658   2.769   2.600   3.201
 2184WAT     H1 6659   2.819   2.648   3.268
 2184WAT     H2 6660   2.783   2.508   3.222
 2185WAT      O 6661   2.718   3.654   2.472
 2185WAT     H1 6662   2.744   3.650   2.380
 2185WAT     H2 6663   2.623   3.642   2.472
 2186WAT      O 6664   2.427   2.289   2.139
 2186WAT     H1 6665   2.511   2.333   2.132
 2186WAT     H2 6666   2.390   2.320   2.221
 2187WAT      O 6667   3.489   2.222   3.285
 2187WAT     H1 6668   3.439   2.296   3.319
 2187WAT     H2 6669   3.571   2.261   3.254
 2188WAT      O 6670   2.316   2.914   1.986
 2188WAT     H1 6671   2.393   2.903   2.042
 2188WAT     H2 6672   2.324   2.845   1.921
 2189WAT      O 6673   3.519   3.463   2.797
 2189WAT     H1 6674   3.531   3.546   2.845
 2189WAT     H2 6675   3.606   3.442   2.763
 2190WAT      O 6676   2.266   3.673   2.765
 2190WAT     H1 6677   2.340   3.618   2.792
 2190WAT     H2 6678   2.304   3.759   2.751
 2191WAT      O 6679   1.955   3.279   2.352
 2191WAT     H1 6680   1.862   3.303   2.351
 2191WAT     H2 6681   2.001   3.362   2.340
 2192WAT      O 6682   2.167   3.591   3.683
 2192WAT     H1 6683   2.247   3.623   3.725
 2192WAT     H2 6684   2.115   3.555   3.756
 2193WAT      O 6685   2.577   3.590   1.947
 2193WAT     H1 6686   2.656   3.619   1.902
 2193WAT     H2 6687   2.525   3.547   1.879
 2194WAT      O 6688   3.050   3.202   3.678
 2194WAT     H1 6689   2.990   3.204   3.604
 2194WAT     H2 6690   3.020   3.129   3.732
 2195WAT      O 6691   3.193   3.575   3.539
 2195WAT     H1 6692   3.289   3.566   3.534
 2195WAT     H2 6693   3.179   3.641   3.607
 2196WAT      O 6694   3.482   3.513   2.089
 2196WAT     H1 6695   3.454   3.471   2.008
 2196WAT     H2 6696   3.463   3.605   2.077
 2197WAT      O 6697   1.939   2.840   3.578
 2197WAT     H1 6698   1.989   2.782   3.635
 2197WAT     H2 6699   1.865   2.868   3.632
 2198WAT      O 6700   2.629   3.112   1.933
 2198WAT     H1 6701   2.618   3.050   2.006
 2198WAT     H2 6702   2.612   3.060   1.855
 2199WAT      O 6703   2.644   2.980   3.531
 2199WAT     H1 6704   2.567   3.037   3.523
 2199WAT     H2 6705   2.662   2.951   3.442
 2200WAT      O 6706   2.953   3.018   1.994
 2200WAT     H1 6707   2.898   3.063   2.058
 2200WAT     H2 6708   3.015   2.968   2.046
 2201WAT      O 6709   3.358   3.153   3.587
 2201WAT     H1 6710   3.432   3.187   3.537
 2201WAT     H2 6711   3.282   3.170   3.532
 2202WAT      O 6712   2.142   2.654   3.667
 2202WAT     H1 6713   2.146   2.624   3.758
 2202WAT     H2 6714   2.227   2.694   3.651
 2203WAT      O 6715   2.336   2.512   3.464
 2203WAT     H1 6716   2.283   2.463   3.401
 2203WAT     H2 6717   2.403   2.555   3.411
 2204WAT      O 6718   2.771   2.816   1.908
 2204WAT     H1 6719   2.823   2.745   1.872
 2204WAT     H2 6720   2.836   2.880   1.938
 2205WAT      O 6721   3.226   2.959   3.440
 2205WAT     H1 6722   3.267   2.974   3.525
 2205WAT     H2 6723   3.132   2.971   3.457
 2206WAT      O 6724   3.273   2.693   3.641
 2206WAT     H1 6725   3.331   2.617   3.632
 2206WAT     H2 6726   3.291   2.746   3.563
 2207WAT      O 6727   2.385   2.209   3.472
 2207WAT     H1 6728   2.375   2.147   3.400
 2207WAT     H2 6729   2.327   2.281   3.449
 2208WAT      O 6730   2.661   2.064   3.175
 2208WAT     H1 6731   2.616   2.067   3.091
 2208WAT     H2 6732   2.598   2.024   3.235
 2209WAT      O 6733   2.702   2.954   3.237
 2209WAT     H1 6734   2.744   3.038   3.220
 2209WAT     H2 6735   2.610   2.968   3.215
 2210WAT      O 6736   2.935   2.727   3.376
 2210WAT     H1 6737   2.947   2.667   3.450
 2210WAT     H2 6738   3.021   2.731   3.334
 2211WAT      O 6739   3.169   2.782   3.233
 2211WAT     H1 6740   3.117   2.835   3.173
 2211WAT     H2 6741   3.204   2.846   3.297
 2212WAT      O 6742   2.409   2.521   1.878
 2212WAT     H1 6743   2.389   2.435   1.914
 2212WAT     H2 6744   2.392   2.513   1.784
 2213WAT      O 6745   2.487   3.584   3.349
 2213WAT     H1 6746   2.433   3.657   3.317
 2213WAT     H2 6747   2.512   3.537   3.270
 2214WAT      O 6748   2.612   2.381   3.502
 2214WAT     H1 6749   2.671   2.350   3.570
 2214WAT     H2 6750   2.530   2.334   3.517
 2215WAT      O 6751   3.094   2.343   3.525
 2215WAT     H1 6752   3.025   2.277   3.518
 2215WAT     H2 6753   3.166   2.298   3.569
 2216WAT      O 6754   3.157   2.002   2.131
 2216WAT     H1 6755   3.185   1.918   2.166
 2216WAT     H2 6756   3.080   2.026   2.182
 2217WAT      O 6757   2.289   2.231   1.877
 2217WAT     H1 6758   2.319   2.232   1.786
 2217WAT     H2 6759   2.363   2.196   1.926
 2218WAT      O 6760   2.773   3.708   3.375
 2218WAT     H1 6761   2.765   3.798   3.406
 2218WAT     H2 6762   2.682   3.676   3.372
 2219WAT      O 6763   2.611   2.126   1.975
 2219WAT     H1 6764   2.576   2.058   1.917
 2219WAT     H2 6765   2.631   2.080   2.057
 2220WAT      O 6766   2.827   3.624   2.137
 2220WAT     H1 6767   2.917   3.658   2.139
 2220WAT     H2 6768   2.831   3.552   2.074
 2221WAT      O 6769   2.191   3.162   1.960
 2221WAT     H1 6770   2.235   3.216   2.026
 2221WAT     H2 6771   2.240   3.079   1.961
 2222WAT      O 6772   1.913   3.441   2.705
 2222WAT     H1 6773   1.946   3.354   2.682
 2222WAT     H2 6774   1.956   3.461   2.788
 2223WAT      O 6775   1.962   3.527   2.979
 2223WAT     H1 6776   1.918   3.545   3.062
 2223WAT     H2 6777   2.018   3.603   2.965
 2224WAT      O 6778   3.525   3.478   3.408
 2224WAT     H1 6779   3.465   3.483   3.333
 2224WAT     H2 6780   3.538   3.384   3.421
 2225WAT      O 6781   3.649   3.252   1.942
 2225WAT     H1 6782   3.566   3.258   1.989
 2225WAT     H2 6783   3.667   3.341   1.911
 2226WAT      O 6784   3.600   2.956   1.908
 2226WAT     H1 6785   3.628   3.046   1.895
 2226WAT     H2 6786   3.581   2.949   2.001
 2227WAT      O 6787   3.240   2.258   2.037
 2227WAT     H1 6788   3.282   2.239   1.953
 2227WAT     H2 6789   3.209   2.173   2.068
 2228WAT      O 6790   2.004   2.508   3.460
 2228WAT     H1 6791   1.914   2.505   3.493
 2228WAT     H2 6792   2.058   2.528   3.536
 2229WAT      O 6793   3.373   2.186   3.648
 2229WAT     H1 6794   3.460   2.187   3.686
 2229WAT     H2 6795   3.374   2.113   3.587
 2230WAT      O 6796   1.866   2.500   2.209
 2230WAT     H1 6797   1.776   2.526   2.192
 2230WAT     H2 6798   1.915   2.527   2.131
 2231WAT      O 6799   2.121   2.405   2.000
 2231WAT     H1 6800   2.192   2.363   1.952
 2231WAT     H2 6801   2.049   2.412   1.937
 2232WAT      O 6802   2.085   2.011   1.904
 2232WAT     H1 6803   2.158   2.065   1.936
 2232WAT     H2 6804   2.113   1.983   1.817
 2233WAT      O 6805   2.054   1.936   2.894
 2233WAT     H1 6806   2.119   1.881   2.850
 2233WAT     H2 6807   2.096   1.961   2.977
 2234WAT      O 6808   3.444   1.955   3.230
 2234WAT     H1 6809   3.508   2.016   3.267
 2234WAT     H2 6810   3.459   1.959   3.136
 2235WAT      O 6811   3.698   2.144   1.908
 2235WAT     H1 6812   3.791   2.131   1.887
 2235WAT     H2 6813   3.696   2.152   2.004
 2236WAT      O 6814   3.705   2.221   2.171
 2236WAT     H1 6815   3.626   2.215   2.224
 2236WAT     H2 6816   3.726   2.315   2.170
 2237WAT      O 6817   3.400   3.625   2.570
 2237WAT     H1 6818   3.459   3.593   2.503
 2237WAT     H2 6819   3.425   3.578   2.649
 2238WAT      O 6820   2.030   1.951   3.169
 2238WAT     H1 6821   1.995   1.997   3.245
 2238WAT     H2 6822   1.996   1.862   3.177
 2239WAT      O 6823   2.190   3.268   3.585
 2239WAT     H1 6824   2.186   3.231   3.673
 2239WAT     H2 6825   2.203   3.362   3.599
 2240WAT      O 6826   2.560   3.424   3.145
 2240WAT     H1 6827   2.536   3.451   3.057
 2240WAT     H2 6828   2.654   3.441   3.151
 2241WAT      O 6829   2.781   2.070   3.521
 2241WAT     H1 6830   2.775   2.130   3.596
 2241WAT     H2 6831   2.875   2.060   3.506
 2242WAT      O 6832   3.045   2.036   3.485
 2242WAT     H1 6833   3.106   2.068   3.419
 2242WAT     H2 6834   3.099   1.988   3.547
 2243WAT      O 6835   3.686   3.626   3.225
 2243WAT     H1 6836   3.637   3.666   3.154
 2243WAT     H2 6837   3.625   3.563   3.265
 2244WAT      O 6838   2.097   1.904   3.496
 2244WAT     H1 6839   2.152   1.886   3.420
 2244WAT     H2 6840   2.103   1.825   3.550
 2245WAT      O 6841   2.174   3.563   3.297
 2245WAT     H1 6842   2.115   3.550   3.371
 2245WAT     H2 6843   2.173   3.479   3.251
 2246WAT      O 6844   3.119   1.892   3.117
 2246WAT     H1 6845   3.031   1.926   3.097
 2246WAT     H2 6846   3.108   1.845   3.200
 2247WAT      O 6847   3.209   2.113   3.256
 2247WAT     H1 6848   3.177   2.032   3.218
 2247WAT     H2 6849   3.304   2.109   3.244
 2248WAT      O 6850   3.455   3.690   2.953
 2248WAT     H1 6851   3.409   3.765   2.916
 2248WAT     H2 6852   3.392   3.618   2.947
 2249WAT      O 6853   2.137   3.300   3.192
 2249WAT     H1 6854   2.065   3.238   3.185
 2249WAT     H2 6855   2.143   3.339   3.105
 2250WAT      O 6856   2.498   3.521   2.871
 2250WAT     H1 6857   2.549   3.460   2.818
 2250WAT     H2 6858   2.563   3.571   2.920
 2251WAT      O 6859   2.772   3.610   2.953
 2251WAT     H1 6860   2.800   3.585   2.866
 2251WAT     H2 6861   2.823   3.555   3.012
 2252WAT      O 6862   2.893   1.984   3.011
 2252WAT     H1 6863   2.815   2.031   3.039
 2252WAT     H2 6864   2.864   1.894   3.001
 2253WAT      O 6865   3.349   2.054   2.816
 2253WAT     H1 6866   3.393   2.049   2.731
 2253WAT     H2 6867   3.322   2.146   2.823
 2254WAT      O 6868   3.535   2.017   2.617
 2254WAT     H1 6869   3.529   1.923   2.602
 2254WAT     H2 6870   3.613   2.028   2.671
 2255WAT      O 6871   1.966   3.631   2.513
 2255WAT     H1 6872   1.949   3.568   2.583
 2255WAT     H2 6873   1.879   3.652   2.478
 2256WAT      O 6874   2.028   2.015   2.264
 2256WAT     H1 6875   2.104   2.026   2.206
 2256WAT     H2 6876   1.982   2.098   2.259
 2257WAT      O 6877   3.132   1.892   2.686
 2257WAT     H1 6878   3.192   1.950   2.734
 2257WAT     H2 6879   3.058   1.949   2.664
 2258WAT      O 6880   3.447   1.933   2.214
 2258WAT     H1 6881   3.466   2.022   2.240
 2258WAT     H2 6882   3.368   1.909   2.263
 2259WAT      O 6883   2.126   3.501   2.258
 2259WAT     H1 6884   2.074   3.539   2.187
 2259WAT     H2 6885   2.119   3.563   2.330
 2260WAT      O 6886   2.265   2.067   2.118
 2260WAT     H1 6887   2.318   1.988   2.105
 2260WAT     H2 6888   2.328   2.135   2.141
 2261WAT      O 6889   2.484   2.041   2.423
 2261WAT     H1 6890   2.421   1.971   2.440
 2261WAT     H2 6891   2.430   2.117   2.401
 2262WAT      O 6892   2.778   3.702   3.690
 2262WAT     H1 6893   2.871   3.679   3.694
 2262WAT     H2 6894   2.777   3.785   3.642
 2263WAT      O 6895   3.602   3.657   2.390
 2263WAT     H1 6896   3.619   3.588   2.325
 2263WAT     H2 6897   3.532   3.709   2.351
 2264WAT      O 6898   2.497   1.969   3.667
 2264WAT     H1 6899   2.469   2.019   3.590
 2264WAT     H2 6900   2.535   1.889   3.630
 2265WAT      O 6901   2.386   3.695   2.145
 2265WAT     H1 6902   2.459   3.667   2.090
 2265WAT     H2 6903   2.412   3.672   2.234
 2266WAT      O 6904   2.302   3.307   2.146
 2266WAT     H1 6905   2.239   3.354   2.201
 2266WAT     H2 6906   2.314   3.223   2.189
 2267WAT      O 6907   3.157   1.910   3.724
 2267WAT     H1 6908   3.146   1.942   3.814
 2267WAT     H2 6909   3.239   1.950   3.695
 2268WAT      O 6910   3.435   3.625   3.672
 2268WAT     H1 6911   3.514   3.575   3.652
 2268WAT     H2 6912   3.464   3.693   3.733
 2269WAT      O 6913   3.048   2.712   0.761
 2269WAT     H1 6914   3.040   2.621   0.734
 2269WAT     H2 6915   3.006   2.762   0.690
 2270WAT      O 6916   2.861   2.890   0.949
 2270WAT     H1 6917   2.783   2.842   0.978
 2270WAT     H2 6918   2.926   2.822   0.931
 2271WAT      O 6919   2.263   2.921   1.037
 2271WAT     H1 6920   2.179   2.896   1.076
 2271WAT     H2 6921   2.323   2.928   1.110
 2272WAT      O 6922   3.263   3.331   0.827
 2272WAT     H1 6923   3.217   3.253   0.860
 2272WAT     H2 6924   3.344   3.333   0.877
 2273WAT      O 6925   2.261   3.325   1.056
 2273WAT     H1 6926   2.291   3.236   1.038
 2273WAT     H2 6927   2.335   3.380   1.033
 2274WAT      O 6928   2.103   2.417   0.415
 2274WAT     H1 6929   2.015   2.451   0.405
 2274WAT     H2 6930   2.132   2.397   0.326
 2275WAT      O 6931   1.900   2.677   1.003
 2275WAT     H1 6932   1.957   2.600   1.003
 2275WAT     H2 6933   1.900   2.707   0.912
 2276WAT      O 6934   2.886   3.559   0.789
 2276WAT     H1 6935   2.824   3.605   0.732
 2276WAT     H2 6936   2.971   3.575   0.749
 2277WAT      O 6937   2.805   3.158   0.949
 2277WAT     H1 6938   2.798   3.063   0.933
 2277WAT     H2 6939   2.881   3.167   1.007
 2278WAT      O 6940   2.024   2.218   1.182
 2278WAT     H1 6941   2.006   2.128   1.210
 2278WAT     H2 6942   1.984   2.273   1.249
 2279WAT      O 6943   2.908   2.438   0.972
 2279WAT     H1 6944   2.946   2.351   0.961
 2279WAT     H2 6945   2.898   2.472   0.883
 2280WAT      O 6946   2.321   2.276   0.518
 2280WAT     H1 6947   2.332   2.366   0.549
 2280WAT     H2 6948   2.230   2.271   0.489
 2281WAT      O 6949   3.286   2.188   0.665
 2281WAT     H1 6950   3.368   2.139   0.670
 2281WAT     H2 6951   3.290   2.247   0.741
 2282WAT      O 6952   2.086   2.468   1.043
 2282WAT     H1 6953   2.154   2.494   1.105
 2282WAT     H2 6954   2.054   2.384   1.076
 2283WAT      O 6955   2.505   2.572   0.952
 2283WAT     H1 6956   2.556   2.622   1.016
 2283WAT     H2 6957   2.558   2.495   0.934
 2284WAT      O 6958   3.715   2.389   1.322
 2284WAT     H1 6959   3.645   2.428   1.270
 2284WAT     H2 6960   3.742   2.459   1.382
 2285WAT      O 6961   2.334   2.036   1.378
 2285WAT     H1 6962   2.334   2.088   1.298
 2285WAT     H2 6963   2.251   1.989   1.376
 2286WAT      O 6964   2.972   3.048   0.528
 2286WAT     H1 6965   2.910   3.094   0.472
 2286WAT     H2 6966   3.023   3.117   0.570
 2287WAT      O 6967   2.459   3.000   1.196
 2287WAT     H1 6968   2.425   3.063   1.260
 2287WAT     H2 6969   2.476   3.053   1.118
 2288WAT      O 6970   3.310   2.382   0.943
 2288WAT     H1 6971   3.239   2.411   1.001
 2288WAT     H2 6972   3.346   2.463   0.907
 2289WAT      O 6973   2.302   2.207   1.179
 2289WAT     H1 6974   2.336   2.292   1.149
 2289WAT     H2 6975   2.208   2.222   1.191
 2290WAT      O 6976   2.380   3.197   1.377
 2290WAT     H1 6977   2.442   3.265   1.349
 2290WAT     H2 6978   2.294   3.238   1.368
 2291WAT      O 6979   1.909   3.116   0.265
 2291WAT     H1 6980   1.871   3.165   0.192
 2291WAT     H2 6981   1.935   3.183   0.329
 2292WAT      O 6982   3.472   3.344   1.169
 2292WAT     H1 6983   3.403   3.411   1.168
 2292WAT     H2 6984   3.525   3.363   1.092
 2293WAT      O 6985   3.617   2.326   0.982
 2293WAT     H1 6986   3.522   2.330   0.995
 2293WAT     H2 6987   3.649   2.408   1.020
 2294WAT      O 6988   2.670   1.956   0.811
 2294WAT     H1 6989   2.701   1.901   0.740
 2294WAT     H2 6990   2.577   1.970   0.793
 2295WAT      O 6991   3.225   3.528   1.040
 2295WAT     H1 6992   3.226   3.488   0.954
 2295WAT     H2 6993   3.170   3.605   1.030
 2296WAT      O 6994   3.355   3.200   0.549
 2296WAT     H1 6995   3.344   3.106   0.562
 2296WAT     H2 6996   3.354   3.236   0.638
 2297WAT      O 6997   3.165   3.018   1.173
 2297WAT     H1 6998   3.207   2.997   1.090
 2297WAT     H2 6999   3.237   3.044   1.230
 2298WAT      O 7000   2.909   2.763   0.485
 2298WAT     H1 7001   2.816   2.756   0.508
 2298WAT     H2 7002   2.924   2.857   0.474
 2299WAT      O 7003   3.560   2.858   1.182
 2299WAT     H1 7004   3.477   2.865   1.135
 2299WAT     H2 7005   3.619   2.917   1.136
 2300WAT      O 7006   3.312   2.919   0.535
 2300WAT     H1 7007   3.250   2.885   0.471
 2300WAT     H2 7008   3.310   2.855   0.606
 2301WAT      O 7009   3.256   2.537   1.277
 2301WAT     H1 7010   3.215   2.619   1.302
 2301WAT     H2 7011   3.183   2.478   1.258
 2302WAT      O 7012   2.469   2.815   0.763
 2302WAT     H1 7013   2.429   2.744   0.714
 2302WAT     H2 7014   2.478   2.781   0.852
 2303WAT      O 7015   2.516   3.184   0.980
 2303WAT     H1 7016   2.486   3.124   0.912
 2303WAT     H2 7017   2.611   3.188   0.968
 2304WAT      O 7018   2.341   2.493   1.141
 2304WAT     H1 7019   2.396   2.504   1.064
 2304WAT     H2 7020   2.392   2.530   1.213
 2305WAT      O 7021   3.325   3.541   1.346
 2305WAT     H1 7022   3.277   3.622   1.327
 2305WAT     H2 7023   3.257   3.476   1.361
 2306WAT      O 7024   2.425   3.158   1.645
 2306WAT     H1 7025   2.336   3.180   1.669
 2306WAT     H2 7026   2.428   3.170   1.550
 2307WAT      O 7027   3.129   2.843   0.236
 2307WAT     H1 7028   3.173   2.759   0.221
 2307WAT     H2 7029   3.201   2.906   0.245
 2308WAT      O 7030   2.308   2.845   1.502
 2308WAT     H1 7031   2.294   2.932   1.539
 2308WAT     H2 7032   2.220   2.811   1.488
 2309WAT      O 7033   2.940   3.337   0.633
 2309WAT     H1 7034   2.984   3.411   0.591
 2309WAT     H2 7035   2.934   3.361   0.725
 2310WAT      O 7036   2.488   3.439   1.723
 2310WAT     H1 7037   2.485   3.480   1.636
 2310WAT     H2 7038   2.472   3.346   1.707
 2311WAT      O 7039   2.139   2.705   0.513
 2311WAT     H1 7040   2.127   2.778   0.452
 2311WAT     H2 7041   2.108   2.628   0.465
 2312WAT      O 7042   3.683   3.518   1.853
 2312WAT     H1 7043   3.731   3.565   1.921
 2312WAT     H2 7044   3.745   3.511   1.780
 2313WAT      O 7045   1.903   3.022   1.094
 2313WAT     H1 7046   1.911   3.036   0.999
 2313WAT     H2 7047   1.965   2.951   1.113
 2314WAT      O 7048   2.028   3.192   0.735
 2314WAT     H1 7049   1.987   3.206   0.650
 2314WAT     H2 7050   2.117   3.164   0.715
 2315WAT      O 7051   3.623   3.237   1.569
 2315WAT     H1 7052   3.636   3.213   1.477
 2315WAT     H2 7053   3.628   3.154   1.616
 2316WAT      O 7054   3.010   3.607   1.426
 2316WAT     H1 7055   3.061   3.598   1.506
 2316WAT     H2 7056   2.925   3.642   1.455
 2317WAT      O 7057   3.207   3.636   0.368
 2317WAT     H1 7058   3.191   3.607   0.458
 2317WAT     H2 7059   3.191   3.558   0.315
 2318WAT      O 7060   2.455   3.613   0.546
 2318WAT     H1 7061   2.437   3.522   0.525
 2318WAT     H2 7062   2.369   3.649   0.570
 2319WAT      O 7063   3.134   3.549   0.632
 2319WAT     H1 7064   3.179   3.471   0.663
 2319WAT     H2 7065   3.168   3.620   0.686
 2320WAT      O 7066   3.609   2.442   1.665
 2320WAT     H1 7067   3.547   2.493   1.612
 2320WAT     H2 7068   3.577   2.352   1.659
 2321WAT      O 7069   1.909   3.126   1.348
 2321WAT     H1 7070   1.925   3.079   1.266
 2321WAT     H2 7071   1.955   3.075   1.414
 2322WAT      O 7072   2.386   2.039   0.851
 2322WAT     H1 7073   2.342   2.117   0.818
 2322WAT     H2 7074   2.442   2.072   0.922
 2323WAT      O 7075   2.815   2.326   1.412
 2323WAT     H1 7076   2.769   2.347   1.493
 2323WAT     H2 7077   2.775   2.245   1.382
 2324WAT      O 7078   3.315   2.448   1.525
 2324WAT     H1 7079   3.230   2.418   1.557
 2324WAT     H2 7080   3.299   2.472   1.434
 2325WAT      O 7081   3.024   2.598   1.735
 2325WAT     H1 7082   3.057   2.515   1.701
 2325WAT     H2 7083   3.103   2.650   1.750
 2326WAT      O 7084   2.698   2.001   0.340
 2326WAT     H1 7085   2.635   2.001   0.412
 2326WAT     H2 7086   2.689   1.915   0.300
 2327WAT      O 7087   2.590   2.094   1.037
 2327WAT     H1 7088   2.620   2.184   1.029
 2327WAT     H2 7089   2.645   2.045   0.976
 2328WAT      O 7090   2.365   2.552   0.624
 2328WAT     H1 7091   2.343   2.530   0.715
 2328WAT     H2 7092   2.287   2.595   0.590
 2329WAT      O 7093   3.088   2.552   0.484
 2329WAT     H1 7094   3.028   2.625   0.466
 2329WAT     H2 7095   3.143   2.546   0.406
 2330WAT      O 7096   2.609   2.641   1.691
 2330WAT     H1 7097   2.600   2.547   1.676
 2330WAT     H2 7098   2.693   2.664   1.651
 2331WAT      O 7099   2.949   2.416   0.687
 2331WAT     H1 7100   2.988   2.448   0.606
 2331WAT     H2 7101   2.985   2.328   0.699
 2332WAT      O 7102   2.122   2.283   1.506
 2332WAT     H1 7103   2.083   2.367   1.527
 2332WAT     H2 7104   2.053   2.219   1.525
 2333WAT      O 7105   2.780   2.291   1.813
 2333WAT     H1 7106   2.711   2.272   1.877
 2333WAT     H2 7107   2.854   2.319   1.866
 2334WAT      O 7108   1.852   2.075   0.910
 2334WAT     H1 7109   1.824   2.132   0.981
 2334WAT     H2 7110   1.927   2.027   0.946
 2335WAT      O 7111   3.007   2.675   1.097
 2335WAT     H1 7112   2.934   2.726   1.132
 2335WAT     H2 7113   2.968   2.593   1.067
 2336WAT      O 7114   2.651   2.342   0.937
 2336WAT     H1 7115   2.651   2.298   0.852
 2336WAT     H2 7116   2.741   2.375   0.948
 2337WAT      O 7117   2.236   2.331   0.833
 2337WAT     H1 7118   2.202   2.378   0.909
 2337WAT     H2 7119   2.160   2.285   0.797
 2338WAT      O 7120   2.657   2.443   0.236
 2338WAT     H1 7121   2.669   2.438   0.331
 2338WAT     H2 7122   2.619   2.529   0.221
 2339WAT      O 7123   3.054   2.220   1.038
 2339WAT     H1 7124   3.055   2.265   1.122
 2339WAT     H2 7125   3.029   2.130   1.059
 2340WAT      O 7126   3.396   1.962   1.622
 2340WAT     H1 7127   3.429   1.888   1.674
 2340WAT     H2 7128   3.400   1.930   1.532
 2341WAT      O 7129   2.066   3.064   1.564
 2341WAT     H1 7130   2.028   3.000   1.624
 2341WAT     H2 7131   2.097   3.134   1.621
 2342WAT      O 7132   2.681   2.748   1.112
 2342WAT     H1 7133   2.718   2.701   1.187
 2342WAT     H2 7134   2.662   2.836   1.146
 2343WAT      O 7135   1.968   2.223   0.725
 2343WAT     H1 7136   1.939   2.186   0.809
 2343WAT     H2 7137   1.961   2.150   0.663
 2344WAT      O 7138   2.460   2.653   1.344
 2344WAT     H1 7139   2.430   2.740   1.366
 2344WAT     H2 7140   2.556   2.659   1.347
 2345WAT      O 7141   2.313   3.073   0.403
 2345WAT     H1 7142   2.236   3.019   0.387
 2345WAT     H2 7143   2.386   3.021   0.370
 2346WAT      O 7144   3.389   2.973   0.983
 2346WAT     H1 7145   3.461   3.022   0.944
 2346WAT     H2 7146   3.369   2.905   0.918
 2347WAT      O 7147   2.935   2.112   0.397
 2347WAT     H1 7148   2.854   2.062   0.389
 2347WAT     H2 7149   2.916   2.196   0.355
 2348WAT      O 7150   2.927   2.980   1.571
 2348WAT     H1 7151   2.920   2.888   1.546
 2348WAT     H2 7152   2.864   2.990   1.643
 2349WAT      O 7153   3.206   2.549   0.227
 2349WAT     H1 7154   3.295   2.581   0.209
 2349WAT     H2 7155   3.204   2.462   0.187
 2350WAT      O 7156   2.317   3.040   0.767
 2350WAT     H1 7157   2.369   2.960   0.762
 2350WAT     H2 7158   2.272   3.034   0.851
 2351WAT      O 7159   2.806   3.167   0.294
 2351WAT     H1 7160   2.840   3.241   0.245
 2351WAT     H2 7161   2.723   3.198   0.331
 2352WAT      O 7162   2.066   2.737   1.458
 2352WAT     H1 7163   2.030   2.803   1.517
 2352WAT     H2 7164   2.036   2.653   1.496
 2353WAT      O 7165   2.386   2.782   1.747
 2353WAT     H1 7166   2.356   2.797   1.657
 2353WAT     H2 7167   2.463   2.726   1.738
 2354WAT      O 7168   2.920   3.262   1.546
 2354WAT     H1 7169   2.922   3.169   1.525
 2354WAT     H2 7170   2.850   3.271   1.610
 2355WAT      O 7171   3.541   2.926   1.481
 2355WAT     H1 7172   3.469   2.985   1.461
 2355WAT     H2 7173   3.594   2.925   1.401
 2356WAT      O 7174   3.536   3.366   0.446
 2356WAT     H1 7175   3.472   3.300   0.474
 2356WAT     H2 7176   3.498   3.406   0.369
 2357WAT      O 7177   3.094   3.099   0.831
 2357WAT     H1 7178   3.130   3.039   0.765
 2357WAT     H2 7179   3.006   3.066   0.848
 2358WAT      O 7180   2.703   3.175   0.572
 2358WAT     H1 7181   2.772   3.229   0.610
 2358WAT     H2 7182   2.624   3.229   0.575
 2359WAT      O 7183   2.633   2.875   0.533
 2359WAT     H1 7184   2.679   2.956   0.555
 2359WAT     H2 7185   2.598   2.843   0.616
 2360WAT      O 7186   2.864   3.426   1.256
 2360WAT     H1 7187   2.928   3.447   1.324
 2360WAT     H2 7188   2.900   3.350   1.211
 2361WAT      O 7189   2.223   1.910   0.580
 2361WAT     H1 7190   2.211   1.909   0.675
 2361WAT     H2 7191   2.141   1.943   0.545
 2362WAT      O 7192   2.991   3.227   1.128
 2362WAT     H1 7193   3.055   3.157   1.139
 2362WAT     H2 7194   3.043   3.305   1.110
 2363WAT      O 7195   3.168   3.307   1.448
 2363WAT     H1 7196   3.202   3.365   1.516
 2363WAT     H2 7197   3.076   3.293   1.471
 2364WAT      O 7198   1.923   2.085   1.526
 2364WAT     H1 7199   1.852   2.105   1.587
 2364WAT     H2 7200   1.965   2.008   1.563
 2365WAT      O 7201   3.334   3.047   0.266
 2365WAT     H1 7202   3.305   3.093   0.345
 2365WAT     H2 7203   3.413   3.001   0.293
 2366WAT      O 7204   1.952   3.484   1.625
 2366WAT     H1 7205   1.963   3.390   1.611
 2366WAT     H2 7206   1.887   3.511   1.560
 2367WAT      O 7207   2.751   3.311   1.765
 2367WAT     H1 7208   2.719   3.240   1.819
 2367WAT     H2 7209   2.684   3.379   1.772
 2368WAT      O 7210   2.555   3.396   0.259
 2368WAT     H1 7211   2.554   3.469   0.198
 2368WAT     H2 7212   2.463   3.371   0.268
 2369WAT      O 7213   2.115   2.918   0.334
 2369WAT     H1 7214   2.055   2.992   0.335
 2369WAT     H2 7215   2.163   2.927   0.251
 2370WAT      O 7216   3.073   2.335   1.301
 2370WAT     H1 7217   3.110   2.253   1.334
 2370WAT     H2 7218   2.987   2.341   1.343
 2371WAT      O 7219   3.409   2.230   0.382
 2371WAT     H1 7220   3.346   2.241   0.311
 2371WAT     H2 7221   3.360   2.252   0.461
 2372WAT      O 7222   2.606   2.458   0.524
 2372WAT     H1 7223   2.535   2.505   0.568
 2372WAT     H2 7224   2.635   2.392   0.587
 2373WAT      O 7225   2.769   2.600   1.324
 2373WAT     H1 7226   2.819   2.648   1.390
 2373WAT     H2 7227   2.783   2.508   1.344
 2374WAT      O 7228   3.009   2.131   0.668
 2374WAT     H1 7229   2.997   2.133   0.573
 2374WAT     H2 7230   3.104   2.135   0.680
 2375WAT      O 7231   2.718   3.654   0.595
 2375WAT     H1 7232   2.744   3.650   0.503
 2375WAT     H2 7233   2.623   3.642   0.594
 2376WAT      O 7234   2.427   2.289   0.261
 2376WAT     H1 7235   2.511   2.333   0.255
 2376WAT     H2 7236   2.390   2.320   0.344
 2377WAT      O 7237   3.489   2.222   1.408
 2377WAT     H1 7238   3.439   2.296   1.442
 2377WAT     H2 7239   3.571   2.261   1.376
 2378WAT      O 7240   3.319   2.746   0.752
 2378WAT     H1 7241   3.225   2.748   0.770
 2378WAT     H2 7242   3.350   2.667   0.797
 2379WAT      O 7243   2.186   2.658   0.177
 2379WAT     H1 7244   2.194   2.563   0.188
 2379WAT     H2 7245   2.275   2.691   0.187
 2380WAT      O 7246   3.519   3.463   0.920
 2380WAT     H1 7247   3.531   3.546   0.967
 2380WAT     H2 7248   3.606   3.442   0.885
 2381WAT      O 7249   2.266   3.673   0.887
 2381WAT     H1 7250   2.340   3.618   0.914
 2381WAT     H2 7251   2.304   3.759   0.873
 2382WAT      O 7252   1.955   3.279   0.475
 2382WAT     H1 7253   1.862   3.303   0.474
 2382WAT     H2 7254   2.001   3.362   0.462
 2383WAT      O 7255   2.167   3.591   1.806
 2383WAT     H1 7256   2.247   3.623   1.847
 2383WAT     H2 7257   2.115   3.555   1.878
 2384WAT      O 7258   3.050   3.202   1.801
 2384WAT     H1 7259   2.990   3.204   1.727
 2384WAT     H2 7260   3.020   3.129   1.854
 2385WAT      O 7261   3.193   3.575   1.662
 2385WAT     H1 7262   3.289   3.566   1.657
 2385WAT     H2 7263   3.179   3.641   1.729
 2386WAT      O 7264   1.939   2.840   1.700
 2386WAT     H1 7265   1.989   2.782   1.758
 2386WAT     H2 7266   1.865   2.868   1.754
 2387WAT      O 7267   2.644   2.980   1.654
 2387WAT     H1 7268   2.567   3.037   1.645
 2387WAT     H2 7269   2.662   2.951   1.564
 2388WAT      O 7270   3.358   3.153   1.709
 2388WAT     H1 7271   3.432   3.187   1.659
 2388WAT     H2 7272   3.282   3.170   1.654
 2389WAT      O 7273   2.142   2.654   1.790
 2389WAT     H1 7274   2.146   2.624   1.881
 2389WAT     H2 7275   2.227   2.694   1.774
 2390WAT      O 7276   2.520   2.914   0.306
 2390WAT     H1 7277   2.562   2.897   0.390
 2390WAT     H2 7278   2.532   2.833   0.256
 2391WAT      O 7279   2.336   2.512   1.587
 2391WAT     H1 7280   2.283   2.463   1.524
 2391WAT     H2 7281   2.403   2.555   1.533
 2392WAT      O 7282   3.226   2.959   1.563
 2392WAT     H1 7283   3.267   2.974   1.648
 2392WAT     H2 7284   3.132   2.971   1.579
 2393WAT      O 7285   3.273   2.693   1.763
 2393WAT     H1 7286   3.331   2.617   1.755
 2393WAT     H2 7287   3.291   2.746   1.686
 2394WAT      O 7288   2.385   2.209   1.595
 2394WAT     H1 7289   2.375   2.147   1.522
 2394WAT     H2 7290   2.327   2.281   1.572
 2395WAT      O 7291   2.661   2.064   1.298
 2395WAT     H1 7292   2.616   2.067   1.213
 2395WAT     H2 7293   2.598   2.024   1.358
 2396WAT      O 7294   2.702   2.954   1.360
 2396WAT     H1 7295   2.744   3.038   1.343
 2396WAT     H2 7296   2.610   2.968   1.337
 2397WAT      O 7297   2.935   2.727   1.498
 2397WAT     H1 7298   2.947   2.667   1.572
 2397WAT     H2 7299   3.021   2.731   1.456
 2398WAT      O 7300   3.169   2.782   1.356
 2398WAT     H1 7301   3.117   2.835   1.296
 2398WAT     H2 7302   3.204   2.846   1.419
 2399WAT      O 7303   2.487   3.584   1.472
 2399WAT     H1 7304   2.433   3.657   1.440
 2399WAT     H2 7305   2.512   3.537   1.393
 2400WAT      O 7306   2.612   2.381   1.624
 2400WAT     H1 7307   2.671   2.350   1.693
 2400WAT     H2 7308   2.530   2.334   1.640
 2401WAT      O 7309   3.094   2.343   1.647
 2401WAT     H1 7310   3.025   2.277   1.641
 2401WAT     H2 7311   3.166   2.298   1.692
 2402WAT      O 7312   3.157   2.002   0.253
 2402WAT     H1 7313   3.185   1.918   0.289
 2402WAT     H2 7314   3.080   2.026   0.305
 2403WAT      O 7315   2.773   3.708   1.497
 2403WAT     H1 7316   2.765   3.798   1.528
 2403WAT     H2 7317   2.682   3.676   1.495
 2404WAT      O 7318   2.827   3.624   0.260
 2404WAT     H1 7319   2.917   3.658   0.262
 2404WAT     H2 7320   2.831   3.552   0.197
 2405WAT      O 7321   1.913   3.441   0.828
 2405WAT     H1 7322   1.946   3.354   0.805
 2405WAT     H2 7323   1.956   3.461   0.911
 2406WAT      O 7324   2.372   3.274   0.594
 2406WAT     H1 7325   2.342   3.261   0.684
 2406WAT     H2 7326   2.362   3.188   0.553
 2407WAT      O 7327   1.962   3.527   1.102
 2407WAT     H1 7328   1.918   3.545   1.185
 2407WAT     H2 7329   2.018   3.603   1.087
 2408WAT      O 7330   3.525   3.478   1.530
 2408WAT     H1 7331   3.465   3.483   1.456
 2408WAT     H2 7332   3.538   3.384   1.543
 2409WAT      O 7333   3.595   2.926   0.314
 2409WAT     H1 7334   3.671   2.983   0.325
 2409WAT     H2 7335   3.596   2.869   0.392
 2410WAT      O 7336   1.945   2.779   0.737
 2410WAT     H1 7337   1.879   2.752   0.673
 2410WAT     H2 7338   2.029   2.768   0.693
 2411WAT      O 7339   3.696   3.012   0.799
 2411WAT     H1 7340   3.733   2.933   0.758
 2411WAT     H2 7341   3.760   3.081   0.781
 2412WAT      O 7342   3.394   3.150   1.340
 2412WAT     H1 7343   3.312   3.193   1.366
 2412WAT     H2 7344   3.435   3.211   1.279
 2413WAT      O 7345   3.590   2.749   0.529
 2413WAT     H1 7346   3.552   2.672   0.486
 2413WAT     H2 7347   3.517   2.787   0.578
 2414WAT      O 7348   2.049   2.817   1.192
 2414WAT     H1 7349   2.085   2.808   1.279
 2414WAT     H2 7350   1.992   2.741   1.182
 2415WAT      O 7351   3.529   2.664   1.493
 2415WAT     H1 7352   3.506   2.641   1.403
 2415WAT     H2 7353   3.555   2.756   1.488
 2416WAT      O 7354   2.004   2.508   1.582
 2416WAT     H1 7355   1.914   2.505   1.616
 2416WAT     H2 7356   2.058   2.528   1.659
 2417WAT      O 7357   3.373   2.186   1.771
 2417WAT     H1 7358   3.460   2.187   1.809
 2417WAT     H2 7359   3.374   2.113   1.710
 2418WAT      O 7360   1.866   2.500   0.332
 2418WAT     H1 7361   1.776   2.526   0.314
 2418WAT     H2 7362   1.915   2.527   0.254
 2419WAT      O 7363   3.517   2.572   0.860
 2419WAT     H1 7364   3.570   2.522   0.796
 2419WAT     H2 7365   3.576   2.585   0.934
 2420WAT      O 7366   3.535   2.580   1.212
 2420WAT     H1 7367   3.440   2.577   1.223
 2420WAT     H2 7368   3.553   2.671   1.188
 2421WAT      O 7369   3.466   2.498   0.453
 2421WAT     H1 7370   3.516   2.474   0.532
 2421WAT     H2 7371   3.446   2.414   0.412
 2422WAT      O 7372   2.054   1.936   1.017
 2422WAT     H1 7373   2.119   1.881   0.973
 2422WAT     H2 7374   2.096   1.961   1.099
 2423WAT      O 7375   3.609   2.361   0.707
 2423WAT     H1 7376   3.598   2.346   0.801
 2423WAT     H2 7377   3.685   2.308   0.683
 2424WAT      O 7378   3.444   1.955   1.353
 2424WAT     H1 7379   3.508   2.016   1.389
 2424WAT     H2 7380   3.459   1.959   1.258
 2425WAT      O 7381   3.705   2.221   0.293
 2425WAT     H1 7382   3.626   2.215   0.346
 2425WAT     H2 7383   3.726   2.315   0.292
 2426WAT      O 7384   3.400   3.625   0.693
 2426WAT     H1 7385   3.459   3.593   0.625
 2426WAT     H2 7386   3.425   3.578   0.772
 2427WAT      O 7387   2.030   1.951   1.291
 2427WAT     H1 7388   1.995   1.997   1.368
 2427WAT     H2 7389   1.996   1.862   1.299
 2428WAT      O 7390   2.190   3.268   1.708
 2428WAT     H1 7391   2.186   3.231   1.796
 2428WAT     H2 7392   2.203   3.362   1.722
 2429WAT      O 7393   2.560   3.424   1.268
 2429WAT     H1 7394   2.536   3.451   1.179
 2429WAT     H2 7395   2.654   3.441   1.273
 2430WAT      O 7396   2.781   2.070   1.643
 2430WAT     H1 7397   2.775   2.130   1.718
 2430WAT     H2 7398   2.875   2.060   1.629
 2431WAT      O 7399   3.045   2.036   1.607
 2431WAT     H1 7400   3.106   2.068   1.541
 2431WAT     H2 7401   3.099   1.988   1.669
 2432WAT      O 7402   3.686   3.626   1.348
 2432WAT     H1 7403   3.637   3.666   1.276
 2432WAT     H2 7404   3.625   3.563   1.387
 2433WAT      O 7405   2.097   1.904   1.619
 2433WAT     H1 7406   2.152   1.886   1.542
 2433WAT     H2 7407   2.103   1.825   1.672
 2434WAT      O 7408   2.174   3.563   1.420
 2434WAT     H1 7409   2.115   3.550   1.494
 2434WAT     H2 7410   2.173   3.479   1.373
 2435WAT      O 7411   3.119   1.892   1.240
 2435WAT     H1 7412   3.031   1.926   1.220
 2435WAT     H2 7413   3.108   1.845   1.323
 2436WAT      O 7414   3.209   2.113   1.378
 2436WAT     H1 7415   3.177   2.032   1.340
 2436WAT     H2 7416   3.304   2.109   1.366
 2437WAT      O 7417   3.455   3.690   1.076
 2437WAT     H1 7418   3.409   3.765   1.038
 2437WAT     H2 7419   3.392   3.618   1.070
 2438WAT      O 7420   2.137   3.300   1.315
 2438WAT     H1 7421   2.065   3.238   1.308
 2438WAT     H2 7422   2.143   3.339   1.228
 2439WAT      O 7423   2.498   3.521   0.993
 2439WAT     H1 7424   2.549   3.460   0.941
 2439WAT     H2 7425   2.563   3.571   1.042
 2440WAT      O 7426   2.772   3.610   1.076
 2440WAT     H1 7427   2.800   3.585   0.988
 2440WAT     H2 7428   2.823   3.555   1.135
 2441WAT      O 7429   2.893   1.984   1.134
 2441WAT     H1 7430   2.815   2.031   1.162
 2441WAT     H2 7431   2.864   1.894   1.123
 2442WAT      O 7432   3.349   2.054   0.938
 2442WAT     H1 7433   3.393   2.049   0.854
 2442WAT     H2 7434   3.322   2.146   0.946
 2443WAT      O 7435   3.535   2.017   0.740
 2443WAT     H1 7436   3.529   1.923   0.725
 2443WAT     H2 7437   3.613   2.028   0.794
 2444WAT      O 7438   1.966   3.631   0.636
 2444WAT     H1 7439   1.949   3.568   0.706
 2444WAT     H2 7440   1.879   3.652   0.601
 2445WAT      O 7441   2.028   2.015   0.386
 2445WAT     H1 7442   2.104   2.026   0.329
 2445WAT     H2 7443   1.982   2.098   0.382
 2446WAT      O 7444   2.682   2.226   0.685
 2446WAT     H1 7445   2.601   2.188   0.651
 2446WAT     H2 7446   2.732   2.150   0.715
 2447WAT      O 7447   3.132   1.892   0.809
 2447WAT     H1 7448   3.192   1.950   0.856
 2447WAT     H2 7449   3.058   1.949   0.787
 2448WAT      O 7450   3.447   1.933   0.336
 2448WAT     H1 7451   3.466   2.022   0.363
 2448WAT     H2 7452   3.368   1.909   0.386
 2449WAT      O 7453   2.126   3.501   0.380
 2449WAT     H1 7454   2.074   3.539   0.310
 2449WAT     H2 7455   2.119   3.563   0.452
 2450WAT      O 7456   2.265   2.067   0.240
 2450WAT     H1 7457   2.318   1.988   0.227
 2450WAT     H2 7458   2.328   2.135   0.263
 2451WAT      O 7459   2.484   2.041   0.546
 2451WAT     H1 7460   2.421   1.971   0.562
 2451WAT     H2 7461   2.430   2.117   0.524
 2452WAT      O 7462   2.778   3.702   1.813
 2452WAT     H1 7463   2.871   3.679   1.817
 2452WAT     H2 7464   2.777   3.785   1.765
 2453WAT      O 7465   3.602   3.657   0.512
 2453WAT     H1 7466   3.619   3.588   0.448
 2453WAT     H2 7467   3.532   3.709   0.473
 2454WAT      O 7468   2.497   1.969   1.789
 2454WAT     H1 7469   2.469   2.019   1.713
 2454WAT     H2 7470   2.535   1.889   1.752
 2455WAT      O 7471   2.386   3.695   0.268
 2455WAT     H1 7472   2.459   3.667   0.213
 2455WAT     H2 7473   2.412   3.672   0.357
 2456WAT      O 7474   2.302   3.307   0.268
 2456WAT     H1 7475   2.239   3.354   0.323
 2456WAT     H2 7476   2.314   3.223   0.312
 2457WAT      O 7477   3.157   1.910   1.847
 2457WAT     H1 7478   3.146   1.942   1.936
 2457WAT     H2 7479   3.239   1.950   1.817
 2458WAT      O 7480   3.435   3.625   1.795
 2458WAT     H1 7481   3.514   3.575   1.774
 2458WAT     H2 7482   3.464   3.693   1.856
 2459WAT      O 7483   3.048   0.835   4.516
 2459WAT     H1 7484   3.040   0.743   4.488
 2459WAT     H2 7485   3.006   0.884   4.445
 2460WAT      O 7486   2.861   1.013   4.704
 2460WAT     H1 7487   2.783   0.965   4.733
 2460WAT     H2 7488   2.926   0.945   4.686
 2461WAT      O 7489   2.263   1.044   4.791
 2461WAT     H1 7490   2.179   1.018   4.831
 2461WAT     H2 7491   2.323   1.051   4.865
 2462WAT      O 7492   3.263   1.453   4.582
 2462WAT     H1 7493   3.217   1.376   4.614
 2462WAT     H2 7494   3.344   1.456   4.632
 2463WAT      O 7495   2.261   1.447   4.811
 2463WAT     H1 7496   2.291   1.358   4.793
 2463WAT     H2 7497   2.335   1.503   4.788
 2464WAT      O 7498   2.103   0.540   4.170
 2464WAT     H1 7499   2.015   0.574   4.160
 2464WAT     H2 7500   2.132   0.520   4.081
 2465WAT      O 7501   1.900   0.800   4.758
 2465WAT     H1 7502   1.957   0.723   4.758
 2465WAT     H2 7503   1.900   0.830   4.667
 2466WAT      O 7504   2.886   1.682   4.544
 2466WAT     H1 7505   2.824   1.727   4.487
 2466WAT     H2 7506   2.971   1.697   4.504
 2467WAT      O 7507   2.805   1.280   4.704
 2467WAT     H1 7508   2.798   1.186   4.688
 2467WAT     H2 7509   2.881   1.289   4.762
 2468WAT      O 7510   2.024   0.341   4.937
 2468WAT     H1 7511   2.006   0.251   4.965
 2468WAT     H2 7512   1.984   0.395   5.004
 2469WAT      O 7513   2.908   0.561   4.727
 2469WAT     H1 7514   2.946   0.474   4.716
 2469WAT     H2 7515   2.898   0.594   4.638
 2470WAT      O 7516   2.321   0.398   4.273
 2470WAT     H1 7517   2.332   0.488   4.304
 2470WAT     H2 7518   2.230   0.393   4.244
 2471WAT      O 7519   3.286   0.310   4.420
 2471WAT     H1 7520   3.368   0.261   4.425
 2471WAT     H2 7521   3.290   0.369   4.496
 2472WAT      O 7522   2.086   0.590   4.798
 2472WAT     H1 7523   2.154   0.617   4.860
 2472WAT     H2 7524   2.054   0.506   4.831
 2473WAT      O 7525   2.505   0.695   4.706
 2473WAT     H1 7526   2.556   0.745   4.770
 2473WAT     H2 7527   2.558   0.617   4.689
 2474WAT      O 7528   3.715   0.512   5.077
 2474WAT     H1 7529   3.645   0.551   5.025
 2474WAT     H2 7530   3.742   0.582   5.137
 2475WAT      O 7531   2.972   1.170   4.283
 2475WAT     H1 7532   2.910   1.217   4.227
 2475WAT     H2 7533   3.023   1.239   4.325
 2476WAT      O 7534   2.459   1.123   4.951
 2476WAT     H1 7535   2.425   1.186   5.015
 2476WAT     H2 7536   2.476   1.176   4.873
 2477WAT      O 7537   3.310   0.504   4.698
 2477WAT     H1 7538   3.239   0.533   4.756
 2477WAT     H2 7539   3.346   0.585   4.662
 2478WAT      O 7540   2.302   0.330   4.934
 2478WAT     H1 7541   2.336   0.414   4.904
 2478WAT     H2 7542   2.208   0.345   4.945
 2479WAT      O 7543   2.380   1.320   5.132
 2479WAT     H1 7544   2.442   1.387   5.104
 2479WAT     H2 7545   2.294   1.361   5.123
 2480WAT      O 7546   1.909   1.239   4.020
 2480WAT     H1 7547   1.871   1.288   3.947
 2480WAT     H2 7548   1.935   1.306   4.083
 2481WAT      O 7549   3.472   1.466   4.924
 2481WAT     H1 7550   3.403   1.533   4.923
 2481WAT     H2 7551   3.525   1.486   4.847
 2482WAT      O 7552   3.617   0.449   4.737
 2482WAT     H1 7553   3.522   0.452   4.750
 2482WAT     H2 7554   3.649   0.530   4.775
 2483WAT      O 7555   3.225   1.651   4.795
 2483WAT     H1 7556   3.226   1.610   4.709
 2483WAT     H2 7557   3.170   1.728   4.785
 2484WAT      O 7558   3.355   1.323   4.304
 2484WAT     H1 7559   3.344   1.228   4.317
 2484WAT     H2 7560   3.354   1.359   4.393
 2485WAT      O 7561   3.165   1.141   4.928
 2485WAT     H1 7562   3.207   1.119   4.845
 2485WAT     H2 7563   3.237   1.167   4.985
 2486WAT      O 7564   2.909   0.885   4.240
 2486WAT     H1 7565   2.816   0.879   4.263
 2486WAT     H2 7566   2.924   0.979   4.228
 2487WAT      O 7567   2.907   0.513   3.939
 2487WAT     H1 7568   2.814   0.529   3.948
 2487WAT     H2 7569   2.939   0.584   3.885
 2488WAT      O 7570   3.560   0.981   4.937
 2488WAT     H1 7571   3.477   0.988   4.890
 2488WAT     H2 7572   3.619   1.039   4.890
 2489WAT      O 7573   3.312   1.042   4.290
 2489WAT     H1 7574   3.250   1.008   4.225
 2489WAT     H2 7575   3.310   0.977   4.361
 2490WAT      O 7576   3.256   0.659   5.032
 2490WAT     H1 7577   3.215   0.742   5.057
 2490WAT     H2 7578   3.183   0.601   5.013
 2491WAT      O 7579   2.469   0.938   4.518
 2491WAT     H1 7580   2.429   0.867   4.468
 2491WAT     H2 7581   2.478   0.904   4.607
 2492WAT      O 7582   2.516   1.307   4.734
 2492WAT     H1 7583   2.486   1.246   4.666
 2492WAT     H2 7584   2.611   1.310   4.723
 2493WAT      O 7585   2.341   0.615   4.896
 2493WAT     H1 7586   2.396   0.626   4.819
 2493WAT     H2 7587   2.392   0.653   4.968
 2494WAT      O 7588   3.325   1.664   5.101
 2494WAT     H1 7589   3.277   1.745   5.081
 2494WAT     H2 7590   3.257   1.599   5.116
 2495WAT      O 7591   2.425   1.280   5.399
 2495WAT     H1 7592   2.336   1.303   5.424
 2495WAT     H2 7593   2.428   1.293   5.305
 2496WAT      O 7594   3.129   0.965   3.991
 2496WAT     H1 7595   3.173   0.882   3.976
 2496WAT     H2 7596   3.201   1.029   4.000
 2497WAT      O 7597   2.308   0.968   5.257
 2497WAT     H1 7598   2.294   1.055   5.294
 2497WAT     H2 7599   2.220   0.933   5.243
 2498WAT      O 7600   2.940   1.459   4.388
 2498WAT     H1 7601   2.984   1.534   4.346
 2498WAT     H2 7602   2.934   1.484   4.480
 2499WAT      O 7603   2.139   0.827   4.268
 2499WAT     H1 7604   2.127   0.900   4.207
 2499WAT     H2 7605   2.108   0.750   4.220
 2500WAT      O 7606   1.903   1.145   4.849
 2500WAT     H1 7607   1.911   1.158   4.754
 2500WAT     H2 7608   1.965   1.074   4.868
 2501WAT      O 7609   2.028   1.315   4.490
 2501WAT     H1 7610   1.987   1.329   4.404
 2501WAT     H2 7611   2.117   1.286   4.470
 2502WAT      O 7612   3.623   1.359   5.324
 2502WAT     H1 7613   3.636   1.335   5.232
 2502WAT     H2 7614   3.628   1.276   5.371
 2503WAT      O 7615   3.010   1.730   5.181
 2503WAT     H1 7616   3.061   1.721   5.261
 2503WAT     H2 7617   2.925   1.764   5.210
 2504WAT      O 7618   3.207   1.758   4.123
 2504WAT     H1 7619   3.191   1.729   4.213
 2504WAT     H2 7620   3.191   1.680   4.070
 2505WAT      O 7621   2.455   1.736   4.301
 2505WAT     H1 7622   2.437   1.644   4.280
 2505WAT     H2 7623   2.369   1.772   4.325
 2506WAT      O 7624   3.177   1.509   3.979
 2506WAT     H1 7625   3.108   1.509   3.913
 2506WAT     H2 7626   3.252   1.467   3.936
 2507WAT      O 7627   3.134   1.672   4.387
 2507WAT     H1 7628   3.179   1.593   4.418
 2507WAT     H2 7629   3.168   1.743   4.441
 2508WAT      O 7630   3.609   0.565   5.420
 2508WAT     H1 7631   3.547   0.615   5.367
 2508WAT     H2 7632   3.577   0.475   5.414
 2509WAT      O 7633   1.909   1.249   5.103
 2509WAT     H1 7634   1.925   1.202   5.021
 2509WAT     H2 7635   1.955   1.198   5.169
 2510WAT      O 7636   2.815   0.448   5.167
 2510WAT     H1 7637   2.769   0.469   5.248
 2510WAT     H2 7638   2.775   0.367   5.136
 2511WAT      O 7639   3.315   0.571   5.280
 2511WAT     H1 7640   3.230   0.541   5.312
 2511WAT     H2 7641   3.299   0.595   5.188
 2512WAT      O 7642   2.590   0.216   4.792
 2512WAT     H1 7643   2.620   0.307   4.784
 2512WAT     H2 7644   2.645   0.167   4.731
 2513WAT      O 7645   2.365   0.674   4.379
 2513WAT     H1 7646   2.343   0.653   4.470
 2513WAT     H2 7647   2.287   0.717   4.345
 2514WAT      O 7648   3.088   0.675   4.239
 2514WAT     H1 7649   3.028   0.747   4.221
 2514WAT     H2 7650   3.143   0.669   4.161
 2515WAT      O 7651   2.949   0.538   4.442
 2515WAT     H1 7652   2.988   0.570   4.361
 2515WAT     H2 7653   2.985   0.451   4.454
 2516WAT      O 7654   2.122   0.405   5.261
 2516WAT     H1 7655   2.083   0.490   5.282
 2516WAT     H2 7656   2.053   0.341   5.280
 2517WAT      O 7657   1.871   0.592   3.785
 2517WAT     H1 7658   1.863   0.686   3.800
 2517WAT     H2 7659   1.836   0.577   3.698
 2518WAT      O 7660   3.007   0.797   4.852
 2518WAT     H1 7661   2.934   0.848   4.886
 2518WAT     H2 7662   2.968   0.716   4.821
 2519WAT      O 7663   2.651   0.465   4.692
 2519WAT     H1 7664   2.651   0.421   4.607
 2519WAT     H2 7665   2.741   0.497   4.703
 2520WAT      O 7666   2.236   0.453   4.588
 2520WAT     H1 7667   2.202   0.501   4.664
 2520WAT     H2 7668   2.160   0.408   4.552
 2521WAT      O 7669   2.657   0.565   3.991
 2521WAT     H1 7670   2.669   0.561   4.086
 2521WAT     H2 7671   2.619   0.651   3.976
 2522WAT      O 7672   3.054   0.343   4.793
 2522WAT     H1 7673   3.055   0.388   4.877
 2522WAT     H2 7674   3.029   0.253   4.814
 2523WAT      O 7675   2.559   0.796   3.931
 2523WAT     H1 7676   2.502   0.751   3.868
 2523WAT     H2 7677   2.629   0.832   3.878
 2524WAT      O 7678   2.066   1.186   5.319
 2524WAT     H1 7679   2.028   1.122   5.379
 2524WAT     H2 7680   2.097   1.257   5.376
 2525WAT      O 7681   2.681   0.871   4.867
 2525WAT     H1 7682   2.718   0.824   4.941
 2525WAT     H2 7683   2.662   0.958   4.901
 2526WAT      O 7684   1.968   0.345   4.480
 2526WAT     H1 7685   1.939   0.309   4.563
 2526WAT     H2 7686   1.961   0.272   4.418
 2527WAT      O 7687   2.460   0.775   5.099
 2527WAT     H1 7688   2.430   0.863   5.121
 2527WAT     H2 7689   2.556   0.781   5.102
 2528WAT      O 7690   2.313   1.196   4.158
 2528WAT     H1 7691   2.236   1.142   4.142
 2528WAT     H2 7692   2.386   1.144   4.124
 2529WAT      O 7693   3.389   1.095   4.738
 2529WAT     H1 7694   3.461   1.145   4.698
 2529WAT     H2 7695   3.369   1.028   4.673
 2530WAT      O 7696   2.935   0.235   4.152
 2530WAT     H1 7697   2.854   0.185   4.144
 2530WAT     H2 7698   2.916   0.319   4.110
 2531WAT      O 7699   2.927   1.102   5.326
 2531WAT     H1 7700   2.920   1.010   5.301
 2531WAT     H2 7701   2.864   1.112   5.398
 2532WAT      O 7702   3.206   0.672   3.981
 2532WAT     H1 7703   3.295   0.703   3.964
 2532WAT     H2 7704   3.204   0.585   3.942
 2533WAT      O 7705   2.317   1.163   4.522
 2533WAT     H1 7706   2.369   1.082   4.517
 2533WAT     H2 7707   2.272   1.156   4.606
 2534WAT      O 7708   2.806   1.289   4.049
 2534WAT     H1 7709   2.840   1.364   4.000
 2534WAT     H2 7710   2.723   1.320   4.086
 2535WAT      O 7711   2.066   0.859   5.213
 2535WAT     H1 7712   2.030   0.926   5.272
 2535WAT     H2 7713   2.036   0.776   5.250
 2536WAT      O 7714   2.920   1.385   5.301
 2536WAT     H1 7715   2.922   1.291   5.279
 2536WAT     H2 7716   2.850   1.393   5.365
 2537WAT      O 7717   3.434   0.803   3.928
 2537WAT     H1 7718   3.425   0.846   3.843
 2537WAT     H2 7719   3.506   0.849   3.972
 2538WAT      O 7720   3.541   1.049   5.236
 2538WAT     H1 7721   3.469   1.108   5.216
 2538WAT     H2 7722   3.594   1.048   5.156
 2539WAT      O 7723   3.536   1.488   4.201
 2539WAT     H1 7724   3.472   1.423   4.229
 2539WAT     H2 7725   3.498   1.529   4.123
 2540WAT      O 7726   3.094   1.221   4.586
 2540WAT     H1 7727   3.130   1.162   4.520
 2540WAT     H2 7728   3.006   1.189   4.603
 2541WAT      O 7729   2.703   1.297   4.326
 2541WAT     H1 7730   2.772   1.352   4.365
 2541WAT     H2 7731   2.624   1.352   4.330
 2542WAT      O 7732   1.917   0.859   3.876
 2542WAT     H1 7733   2.004   0.887   3.904
 2542WAT     H2 7734   1.868   0.940   3.864
 2543WAT      O 7735   2.633   0.998   4.288
 2543WAT     H1 7736   2.679   1.079   4.310
 2543WAT     H2 7737   2.598   0.966   4.371
 2544WAT      O 7738   2.864   1.549   5.011
 2544WAT     H1 7739   2.928   1.569   5.078
 2544WAT     H2 7740   2.900   1.473   4.965
 2545WAT      O 7741   2.991   1.349   4.882
 2545WAT     H1 7742   3.055   1.279   4.894
 2545WAT     H2 7743   3.043   1.427   4.864
 2546WAT      O 7744   3.375   1.378   3.855
 2546WAT     H1 7745   3.353   1.306   3.914
 2546WAT     H2 7746   3.336   1.353   3.771
 2547WAT      O 7747   3.168   1.429   5.203
 2547WAT     H1 7748   3.202   1.488   5.271
 2547WAT     H2 7749   3.076   1.416   5.226
 2548WAT      O 7750   1.954   1.780   3.932
 2548WAT     H1 7751   1.990   1.840   3.867
 2548WAT     H2 7752   1.940   1.835   4.010
 2549WAT      O 7753   3.334   1.169   4.021
 2549WAT     H1 7754   3.305   1.215   4.100
 2549WAT     H2 7755   3.413   1.123   4.048
 2550WAT      O 7756   1.952   1.607   5.380
 2550WAT     H1 7757   1.963   1.513   5.366
 2550WAT     H2 7758   1.887   1.633   5.315
 2551WAT      O 7759   2.555   1.519   4.014
 2551WAT     H1 7760   2.554   1.592   3.952
 2551WAT     H2 7761   2.463   1.494   4.023
 2552WAT      O 7762   2.115   1.041   4.088
 2552WAT     H1 7763   2.055   1.115   4.089
 2552WAT     H2 7764   2.163   1.050   4.006
 2553WAT      O 7765   3.073   0.457   5.056
 2553WAT     H1 7766   3.110   0.375   5.089
 2553WAT     H2 7767   2.987   0.463   5.098
 2554WAT      O 7768   3.409   0.353   4.137
 2554WAT     H1 7769   3.346   0.363   4.066
 2554WAT     H2 7770   3.360   0.375   4.216
 2555WAT      O 7771   2.854   1.525   3.880
 2555WAT     H1 7772   2.864   1.505   3.787
 2555WAT     H2 7773   2.764   1.499   3.901
 2556WAT      O 7774   2.606   0.581   4.279
 2556WAT     H1 7775   2.535   0.628   4.323
 2556WAT     H2 7776   2.635   0.515   4.342
 2557WAT      O 7777   2.769   0.723   5.078
 2557WAT     H1 7778   2.819   0.770   5.145
 2557WAT     H2 7779   2.783   0.630   5.099
 2558WAT      O 7780   3.009   0.253   4.422
 2558WAT     H1 7781   2.997   0.255   4.328
 2558WAT     H2 7782   3.104   0.258   4.434
 2559WAT      O 7783   2.718   1.777   4.350
 2559WAT     H1 7784   2.744   1.773   4.258
 2559WAT     H2 7785   2.623   1.764   4.349
 2560WAT      O 7786   2.427   0.412   4.016
 2560WAT     H1 7787   2.511   0.455   4.009
 2560WAT     H2 7788   2.390   0.443   4.099
 2561WAT      O 7789   3.489   0.344   5.163
 2561WAT     H1 7790   3.439   0.418   5.197
 2561WAT     H2 7791   3.571   0.383   5.131
 2562WAT      O 7792   3.319   0.869   4.507
 2562WAT     H1 7793   3.225   0.870   4.525
 2562WAT     H2 7794   3.350   0.790   4.552
 2563WAT      O 7795   2.316   1.037   3.863
 2563WAT     H1 7796   2.393   1.026   3.920
 2563WAT     H2 7797   2.324   0.967   3.798
 2564WAT      O 7798   2.186   0.780   3.932
 2564WAT     H1 7799   2.194   0.685   3.943
 2564WAT     H2 7800   2.275   0.813   3.942
 2565WAT      O 7801   3.519   1.586   4.675
 2565WAT     H1 7802   3.531   1.668   4.722
 2565WAT     H2 7803   3.606   1.565   4.640
 2566WAT      O 7804   2.266   1.795   4.642
 2566WAT     H1 7805   2.340   1.740   4.669
 2566WAT     H2 7806   2.304   1.882   4.628
 2567WAT      O 7807   1.955   1.402   4.229
 2567WAT     H1 7808   1.862   1.426   4.229
 2567WAT     H2 7809   2.001   1.485   4.217
 2568WAT      O 7810   2.577   1.712   3.824
 2568WAT     H1 7811   2.656   1.741   3.779
 2568WAT     H2 7812   2.525   1.669   3.756
 2569WAT      O 7813   3.482   1.635   3.967
 2569WAT     H1 7814   3.454   1.594   3.885
 2569WAT     H2 7815   3.463   1.728   3.955
 2570WAT      O 7816   2.629   1.234   3.811
 2570WAT     H1 7817   2.618   1.173   3.883
 2570WAT     H2 7818   2.612   1.182   3.732
 2571WAT      O 7819   2.644   1.103   5.409
 2571WAT     H1 7820   2.567   1.160   5.400
 2571WAT     H2 7821   2.662   1.074   5.319
 2572WAT      O 7822   2.953   1.141   3.871
 2572WAT     H1 7823   2.898   1.185   3.936
 2572WAT     H2 7824   3.015   1.090   3.924
 2573WAT      O 7825   2.520   1.037   4.061
 2573WAT     H1 7826   2.562   1.020   4.145
 2573WAT     H2 7827   2.532   0.956   4.011
 2574WAT      O 7828   2.336   0.635   5.342
 2574WAT     H1 7829   2.283   0.585   5.279
 2574WAT     H2 7830   2.403   0.677   5.288
 2575WAT      O 7831   2.771   0.939   3.786
 2575WAT     H1 7832   2.823   0.867   3.749
 2575WAT     H2 7833   2.836   1.003   3.816
 2576WAT      O 7834   3.226   1.081   5.318
 2576WAT     H1 7835   3.267   1.097   5.403
 2576WAT     H2 7836   3.132   1.094   5.334
 2577WAT      O 7837   2.385   0.331   5.349
 2577WAT     H1 7838   2.375   0.269   5.277
 2577WAT     H2 7839   2.327   0.404   5.327
 2578WAT      O 7840   2.702   1.076   5.115
 2578WAT     H1 7841   2.744   1.161   5.098
 2578WAT     H2 7842   2.610   1.090   5.092
 2579WAT      O 7843   2.935   0.850   5.253
 2579WAT     H1 7844   2.947   0.790   5.327
 2579WAT     H2 7845   3.021   0.853   5.211
 2580WAT      O 7846   3.169   0.905   5.111
 2580WAT     H1 7847   3.117   0.957   5.051
 2580WAT     H2 7848   3.204   0.968   5.174
 2581WAT      O 7849   2.409   0.644   3.755
 2581WAT     H1 7850   2.389   0.558   3.792
 2581WAT     H2 7851   2.392   0.635   3.662
 2582WAT      O 7852   2.487   1.707   5.226
 2582WAT     H1 7853   2.433   1.779   5.195
 2582WAT     H2 7854   2.512   1.659   5.147
 2583WAT      O 7855   2.289   0.354   3.754
 2583WAT     H1 7856   2.319   0.355   3.663
 2583WAT     H2 7857   2.363   0.319   3.804
 2584WAT      O 7858   2.773   1.830   5.252
 2584WAT     H1 7859   2.765   1.921   5.283
 2584WAT     H2 7860   2.682   1.799   5.250
 2585WAT      O 7861   2.611   0.248   3.853
 2585WAT     H1 7862   2.576   0.180   3.795
 2585WAT     H2 7863   2.631   0.202   3.934
 2586WAT      O 7864   2.827   1.747   4.015
 2586WAT     H1 7865   2.917   1.781   4.017
 2586WAT     H2 7866   2.831   1.675   3.952
 2587WAT      O 7867   2.191   1.284   3.837
 2587WAT     H1 7868   2.235   1.339   3.903
 2587WAT     H2 7869   2.240   1.202   3.838
 2588WAT      O 7870   1.913   1.563   4.583
 2588WAT     H1 7871   1.946   1.476   4.559
 2588WAT     H2 7872   1.956   1.584   4.666
 2589WAT      O 7873   2.372   1.396   4.349
 2589WAT     H1 7874   2.342   1.384   4.439
 2589WAT     H2 7875   2.362   1.310   4.308
 2590WAT      O 7876   1.962   1.650   4.856
 2590WAT     H1 7877   1.918   1.668   4.940
 2590WAT     H2 7878   2.018   1.726   4.842
 2591WAT      O 7879   3.525   1.600   5.285
 2591WAT     H1 7880   3.465   1.606   5.211
 2591WAT     H2 7881   3.538   1.506   5.298
 2592WAT      O 7882   3.649   1.374   3.819
 2592WAT     H1 7883   3.566   1.381   3.866
 2592WAT     H2 7884   3.667   1.463   3.789
 2593WAT      O 7885   3.595   1.049   4.069
 2593WAT     H1 7886   3.671   1.106   4.080
 2593WAT     H2 7887   3.596   0.992   4.146
 2594WAT      O 7888   1.945   0.901   4.492
 2594WAT     H1 7889   1.879   0.874   4.428
 2594WAT     H2 7890   2.029   0.890   4.447
 2595WAT      O 7891   3.696   1.134   4.554
 2595WAT     H1 7892   3.733   1.056   4.513
 2595WAT     H2 7893   3.760   1.203   4.536
 2596WAT      O 7894   3.394   1.273   5.095
 2596WAT     H1 7895   3.312   1.316   5.121
 2596WAT     H2 7896   3.435   1.334   5.034
 2597WAT      O 7897   3.600   1.078   3.785
 2597WAT     H1 7898   3.628   1.169   3.772
 2597WAT     H2 7899   3.581   1.072   3.879
 2598WAT      O 7900   3.240   0.381   3.915
 2598WAT     H1 7901   3.282   0.362   3.831
 2598WAT     H2 7902   3.209   0.295   3.946
 2599WAT      O 7903   3.590   0.872   4.284
 2599WAT     H1 7904   3.552   0.795   4.241
 2599WAT     H2 7905   3.517   0.910   4.333
 2600WAT      O 7906   2.049   0.940   4.946
 2600WAT     H1 7907   2.085   0.931   5.034
 2600WAT     H2 7908   1.992   0.863   4.936
 2601WAT      O 7909   3.529   0.786   5.248
 2601WAT     H1 7910   3.506   0.764   5.158
 2601WAT     H2 7911   3.555   0.878   5.243
 2602WAT      O 7912   2.004   0.631   5.337
 2602WAT     H1 7913   1.914   0.627   5.371
 2602WAT     H2 7914   2.058   0.651   5.413
 2603WAT      O 7915   1.866   0.622   4.087
 2603WAT     H1 7916   1.776   0.648   4.069
 2603WAT     H2 7917   1.915   0.649   4.009
 2604WAT      O 7918   3.517   0.694   4.614
 2604WAT     H1 7919   3.570   0.645   4.551
 2604WAT     H2 7920   3.576   0.708   4.689
 2605WAT      O 7921   3.535   0.703   4.967
 2605WAT     H1 7922   3.440   0.699   4.978
 2605WAT     H2 7923   3.553   0.794   4.943
 2606WAT      O 7924   2.121   0.528   3.878
 2606WAT     H1 7925   2.192   0.486   3.829
 2606WAT     H2 7926   2.049   0.535   3.814
 2607WAT      O 7927   3.466   0.620   4.208
 2607WAT     H1 7928   3.516   0.597   4.287
 2607WAT     H2 7929   3.446   0.536   4.167
 2608WAT      O 7930   3.609   0.484   4.462
 2608WAT     H1 7931   3.598   0.468   4.556
 2608WAT     H2 7932   3.685   0.431   4.437
 2609WAT      O 7933   3.698   0.267   3.786
 2609WAT     H1 7934   3.791   0.254   3.765
 2609WAT     H2 7935   3.696   0.275   3.881
 2610WAT      O 7936   3.705   0.344   4.048
 2610WAT     H1 7937   3.626   0.337   4.101
 2610WAT     H2 7938   3.726   0.437   4.047
 2611WAT      O 7939   3.400   1.748   4.448
 2611WAT     H1 7940   3.459   1.716   4.380
 2611WAT     H2 7941   3.425   1.700   4.527
 2612WAT      O 7942   2.560   1.547   5.023
 2612WAT     H1 7943   2.536   1.573   4.934
 2612WAT     H2 7944   2.654   1.564   5.028
 2613WAT      O 7945   3.686   1.748   5.103
 2613WAT     H1 7946   3.637   1.788   5.031
 2613WAT     H2 7947   3.625   1.686   5.142
 2614WAT      O 7948   2.174   1.686   5.175
 2614WAT     H1 7949   2.115   1.672   5.248
 2614WAT     H2 7950   2.173   1.602   5.128
 2615WAT      O 7951   3.455   1.813   4.831
 2615WAT     H1 7952   3.409   1.888   4.793
 2615WAT     H2 7953   3.392   1.741   4.825
 2616WAT      O 7954   2.137   1.422   5.070
 2616WAT     H1 7955   2.065   1.360   5.063
 2616WAT     H2 7956   2.143   1.462   4.983
 2617WAT      O 7957   2.498   1.644   4.748
 2617WAT     H1 7958   2.549   1.582   4.696
 2617WAT     H2 7959   2.563   1.694   4.797
 2618WAT      O 7960   2.772   1.733   4.831
 2618WAT     H1 7961   2.800   1.707   4.743
 2618WAT     H2 7962   2.823   1.677   4.890
 2619WAT      O 7963   3.349   0.177   4.693
 2619WAT     H1 7964   3.393   0.171   4.609
 2619WAT     H2 7965   3.322   0.268   4.700
 2620WAT      O 7966   1.966   1.754   4.391
 2620WAT     H1 7967   1.949   1.691   4.460
 2620WAT     H2 7968   1.879   1.775   4.356
 2621WAT      O 7969   2.682   0.348   4.440
 2621WAT     H1 7970   2.601   0.311   4.406
 2621WAT     H2 7971   2.732   0.273   4.470
 2622WAT      O 7972   2.126   1.623   4.135
 2622WAT     H1 7973   2.074   1.661   4.065
 2622WAT     H2 7974   2.119   1.686   4.207
 2623WAT      O 7975   3.602   1.779   4.267
 2623WAT     H1 7976   3.619   1.710   4.203
 2623WAT     H2 7977   3.532   1.832   4.228
 2624WAT      O 7978   2.386   1.818   4.023
 2624WAT     H1 7979   2.459   1.790   3.968
 2624WAT     H2 7980   2.412   1.794   4.112
 2625WAT      O 7981   2.302   1.430   4.023
 2625WAT     H1 7982   2.239   1.477   4.078
 2625WAT     H2 7983   2.314   1.345   4.067
 2626WAT      O 7984   3.048   0.835   2.638
 2626WAT     H1 7985   3.040   0.743   2.611
 2626WAT     H2 7986   3.006   0.884   2.567
 2627WAT      O 7987   2.861   1.013   2.826
 2627WAT     H1 7988   2.783   0.965   2.855
 2627WAT     H2 7989   2.926   0.945   2.809
 2628WAT      O 7990   2.263   1.044   2.914
 2628WAT     H1 7991   2.179   1.018   2.954
 2628WAT     H2 7992   2.323   1.051   2.988
 2629WAT      O 7993   3.263   1.453   2.704
 2629WAT     H1 7994   3.217   1.376   2.737
 2629WAT     H2 7995   3.344   1.456   2.755
 2630WAT      O 7996   2.261   1.447   2.934
 2630WAT     H1 7997   2.291   1.358   2.916
 2630WAT     H2 7998   2.335   1.503   2.911
 2631WAT      O 7999   2.103   0.540   2.292
 2631WAT     H1 8000   2.015   0.574   2.282
 2631WAT     H2 8001   2.132   0.520   2.203
 2632WAT      O 8002   1.900   0.800   2.881
 2632WAT     H1 8003   1.957   0.723   2.881
 2632WAT     H2 8004   1.900   0.830   2.790
 2633WAT      O 8005   2.886   1.682   2.666
 2633WAT     H1 8006   2.824   1.727   2.609
 2633WAT     H2 8007   2.971   1.697   2.626
 2634WAT      O 8008   2.805   1.280   2.827
 2634WAT     H1 8009   2.798   1.186   2.811
 2634WAT     H2 8010   2.881   1.289   2.884
 2635WAT      O 8011   2.024   0.341   3.059
 2635WAT     H1 8012   2.006   0.251   3.087
 2635WAT     H2 8013   1.984   0.395   3.127
 2636WAT      O 8014   2.908   0.561   2.850
 2636WAT     H1 8015   2.946   0.474   2.838
 2636WAT     H2 8016   2.898   0.594   2.760
 2637WAT      O 8017   2.321   0.398   2.396
 2637WAT     H1 8018   2.332   0.488   2.426
 2637WAT     H2 8019   2.230   0.393   2.367
 2638WAT      O 8020   3.286   0.310   2.543
 2638WAT     H1 8021   3.368   0.261   2.547
 2638WAT     H2 8022   3.290   0.369   2.618
 2639WAT      O 8023   2.086   0.590   2.920
 2639WAT     H1 8024   2.154   0.617   2.982
 2639WAT     H2 8025   2.054   0.506   2.954
 2640WAT      O 8026   2.505   0.695   2.829
 2640WAT     H1 8027   2.556   0.745   2.893
 2640WAT     H2 8028   2.558   0.617   2.811
 2641WAT      O 8029   3.715   0.512   3.199
 2641WAT     H1 8030   3.645   0.551   3.147
 2641WAT     H2 8031   3.742   0.582   3.260
 2642WAT      O 8032   2.972   1.170   2.406
 2642WAT     H1 8033   2.910   1.217   2.349
 2642WAT     H2 8034   3.023   1.239   2.447
 2643WAT      O 8035   2.459   1.123   3.073
 2643WAT     H1 8036   2.425   1.186   3.138
 2643WAT     H2 8037   2.476   1.176   2.995
 2644WAT      O 8038   3.310   0.504   2.820
 2644WAT     H1 8039   3.239   0.533   2.878
 2644WAT     H2 8040   3.346   0.585   2.784
 2645WAT      O 8041   2.302   0.330   3.056
 2645WAT     H1 8042   2.336   0.414   3.027
 2645WAT     H2 8043   2.208   0.345   3.068
 2646WAT      O 8044   2.380   1.320   3.255
 2646WAT     H1 8045   2.442   1.387   3.227
 2646WAT     H2 8046   2.294   1.361   3.246
 2647WAT      O 8047   1.909   1.239   2.143
 2647WAT     H1 8048   1.871   1.288   2.070
 2647WAT     H2 8049   1.935   1.306   2.206
 2648WAT      O 8050   3.472   1.466   3.046
 2648WAT     H1 8051   3.403   1.533   3.046
 2648WAT     H2 8052   3.525   1.486   2.970
 2649WAT      O 8053   3.617   0.449   2.859
 2649WAT     H1 8054   3.522   0.452   2.872
 2649WAT     H2 8055   3.649   0.530   2.898
 2650WAT      O 8056   3.225   1.651   2.918
 2650WAT     H1 8057   3.226   1.610   2.831
 2650WAT     H2 8058   3.170   1.728   2.907
 2651WAT      O 8059   3.355   1.323   2.427
 2651WAT     H1 8060   3.344   1.228   2.439
 2651WAT     H2 8061   3.354   1.359   2.515
 2652WAT      O 8062   3.165   1.141   3.051
 2652WAT     H1 8063   3.207   1.119   2.967
 2652WAT     H2 8064   3.237   1.167   3.108
 2653WAT      O 8065   2.909   0.885   2.362
 2653WAT     H1 8066   2.816   0.879   2.385
 2653WAT     H2 8067   2.924   0.979   2.351
 2654WAT      O 8068   2.907   0.513   2.062
 2654WAT     H1 8069   2.814   0.529   2.071
 2654WAT     H2 8070   2.939   0.584   2.007
 2655WAT      O 8071   3.560   0.981   3.060
 2655WAT     H1 8072   3.477   0.988   3.012
 2655WAT     H2 8073   3.619   1.039   3.013
 2656WAT      O 8074   3.312   1.042   2.413
 2656WAT     H1 8075   3.250   1.008   2.348
 2656WAT     H2 8076   3.310   0.977   2.484
 2657WAT      O 8077   3.256   0.659   3.154
 2657WAT     H1 8078   3.215   0.742   3.180
 2657WAT     H2 8079   3.183   0.601   3.135
 2658WAT      O 8080   2.469   0.938   2.641
 2658WAT     H1 8081   2.429   0.867   2.591
 2658WAT     H2 8082   2.478   0.904   2.729
 2659WAT      O 8083   2.516   1.307   2.857
 2659WAT     H1 8084   2.486   1.246   2.789
 2659WAT     H2 8085   2.611   1.310   2.846
 2660WAT      O 8086   2.341   0.615   3.019
 2660WAT     H1 8087   2.396   0.626   2.941
 2660WAT     H2 8088   2.392   0.653   3.090
 2661WAT      O 8089   3.325   1.664   3.223
 2661WAT     H1 8090   3.277   1.745   3.204
 2661WAT     H2 8091   3.257   1.599   3.238
 2662WAT      O 8092   2.425   1.280   3.522
 2662WAT     H1 8093   2.336   1.303   3.547
 2662WAT     H2 8094   2.428   1.293   3.427
 2663WAT      O 8095   3.129   0.965   2.113
 2663WAT     H1 8096   3.173   0.882   2.099
 2663WAT     H2 8097   3.201   1.029   2.122
 2664WAT      O 8098   2.308   0.968   3.380
 2664WAT     H1 8099   2.294   1.055   3.417
 2664WAT     H2 8100   2.220   0.933   3.365
 2665WAT      O 8101   2.940   1.459   2.510
 2665WAT     H1 8102   2.984   1.534   2.469
 2665WAT     H2 8103   2.934   1.484   2.603
 2666WAT      O 8104   2.488   1.562   3.600
 2666WAT     H1 8105   2.485   1.602   3.514
 2666WAT     H2 8106   2.472   1.469   3.584
 2667WAT      O 8107   2.139   0.827   2.391
 2667WAT     H1 8108   2.127   0.900   2.329
 2667WAT     H2 8109   2.108   0.750   2.343
 2668WAT      O 8110   3.683   1.640   3.730
 2668WAT     H1 8111   3.731   1.688   3.798
 2668WAT     H2 8112   3.745   1.633   3.658
 2669WAT      O 8113   1.903   1.145   2.971
 2669WAT     H1 8114   1.911   1.158   2.877
 2669WAT     H2 8115   1.965   1.074   2.991
 2670WAT      O 8116   2.028   1.315   2.612
 2670WAT     H1 8117   1.987   1.329   2.527
 2670WAT     H2 8118   2.117   1.286   2.592
 2671WAT      O 8119   3.623   1.359   3.446
 2671WAT     H1 8120   3.636   1.335   3.354
 2671WAT     H2 8121   3.628   1.276   3.493
 2672WAT      O 8122   3.010   1.730   3.303
 2672WAT     H1 8123   3.061   1.721   3.383
 2672WAT     H2 8124   2.925   1.764   3.332
 2673WAT      O 8125   3.207   1.758   2.246
 2673WAT     H1 8126   3.191   1.729   2.336
 2673WAT     H2 8127   3.191   1.680   2.192
 2674WAT      O 8128   2.455   1.736   2.424
 2674WAT     H1 8129   2.437   1.644   2.402
 2674WAT     H2 8130   2.369   1.772   2.448
 2675WAT      O 8131   3.177   1.509   2.102
 2675WAT     H1 8132   3.108   1.509   2.036
 2675WAT     H2 8133   3.252   1.467   2.059
 2676WAT      O 8134   3.134   1.672   2.509
 2676WAT     H1 8135   3.179   1.593   2.541
 2676WAT     H2 8136   3.168   1.743   2.564
 2677WAT      O 8137   3.609   0.565   3.543
 2677WAT     H1 8138   3.547   0.615   3.490
 2677WAT     H2 8139   3.577   0.475   3.537
 2678WAT      O 8140   1.909   1.249   3.225
 2678WAT     H1 8141   1.925   1.202   3.143
 2678WAT     H2 8142   1.955   1.198   3.292
 2679WAT      O 8143   2.815   0.448   3.289
 2679WAT     H1 8144   2.769   0.469   3.370
 2679WAT     H2 8145   2.775   0.367   3.259
 2680WAT      O 8146   3.315   0.571   3.402
 2680WAT     H1 8147   3.230   0.541   3.434
 2680WAT     H2 8148   3.299   0.595   3.311
 2681WAT      O 8149   3.024   0.721   3.612
 2681WAT     H1 8150   3.057   0.637   3.578
 2681WAT     H2 8151   3.103   0.773   3.627
 2682WAT      O 8152   2.590   0.216   2.915
 2682WAT     H1 8153   2.620   0.307   2.907
 2682WAT     H2 8154   2.645   0.167   2.853
 2683WAT      O 8155   2.365   0.674   2.502
 2683WAT     H1 8156   2.343   0.653   2.592
 2683WAT     H2 8157   2.287   0.717   2.467
 2684WAT      O 8158   3.088   0.675   2.362
 2684WAT     H1 8159   3.028   0.747   2.343
 2684WAT     H2 8160   3.143   0.669   2.283
 2685WAT      O 8161   2.609   0.764   3.568
 2685WAT     H1 8162   2.600   0.670   3.553
 2685WAT     H2 8163   2.693   0.786   3.529
 2686WAT      O 8164   2.949   0.538   2.565
 2686WAT     H1 8165   2.988   0.570   2.483
 2686WAT     H2 8166   2.985   0.451   2.576
 2687WAT      O 8167   2.122   0.405   3.384
 2687WAT     H1 8168   2.083   0.490   3.404
 2687WAT     H2 8169   2.053   0.341   3.403
 2688WAT      O 8170   2.780   0.413   3.691
 2688WAT     H1 8171   2.711   0.394   3.754
 2688WAT     H2 8172   2.854   0.442   3.744
 2689WAT      O 8173   1.871   0.592   1.908
 2689WAT     H1 8174   1.863   0.686   1.922
 2689WAT     H2 8175   1.836   0.577   1.820
 2690WAT      O 8176   3.007   0.797   2.974
 2690WAT     H1 8177   2.934   0.848   3.009
 2690WAT     H2 8178   2.968   0.716   2.944
 2691WAT      O 8179   2.651   0.465   2.815
 2691WAT     H1 8180   2.651   0.421   2.730
 2691WAT     H2 8181   2.741   0.497   2.825
 2692WAT      O 8182   2.236   0.453   2.711
 2692WAT     H1 8183   2.202   0.501   2.786
 2692WAT     H2 8184   2.160   0.408   2.675
 2693WAT      O 8185   2.657   0.565   2.114
 2693WAT     H1 8186   2.669   0.561   2.209
 2693WAT     H2 8187   2.619   0.651   2.098
 2694WAT      O 8188   3.054   0.343   2.915
 2694WAT     H1 8189   3.055   0.388   3.000
 2694WAT     H2 8190   3.029   0.253   2.937
 2695WAT      O 8191   2.559   0.796   2.054
 2695WAT     H1 8192   2.502   0.751   1.991
 2695WAT     H2 8193   2.629   0.832   2.000
 2696WAT      O 8194   2.066   1.186   3.441
 2696WAT     H1 8195   2.028   1.122   3.501
 2696WAT     H2 8196   2.097   1.257   3.498
 2697WAT      O 8197   2.681   0.871   2.989
 2697WAT     H1 8198   2.718   0.824   3.064
 2697WAT     H2 8199   2.662   0.958   3.023
 2698WAT      O 8200   1.968   0.345   2.602
 2698WAT     H1 8201   1.939   0.309   2.686
 2698WAT     H2 8202   1.961   0.272   2.541
 2699WAT      O 8203   2.460   0.775   3.221
 2699WAT     H1 8204   2.430   0.863   3.244
 2699WAT     H2 8205   2.556   0.781   3.225
 2700WAT      O 8206   2.313   1.196   2.281
 2700WAT     H1 8207   2.236   1.142   2.265
 2700WAT     H2 8208   2.386   1.144   2.247
 2701WAT      O 8209   3.389   1.095   2.860
 2701WAT     H1 8210   3.461   1.145   2.821
 2701WAT     H2 8211   3.369   1.028   2.796
 2702WAT      O 8212   2.935   0.235   2.274
 2702WAT     H1 8213   2.854   0.185   2.267
 2702WAT     H2 8214   2.916   0.319   2.233
 2703WAT      O 8215   2.927   1.102   3.449
 2703WAT     H1 8216   2.920   1.010   3.423
 2703WAT     H2 8217   2.864   1.112   3.520
 2704WAT      O 8218   3.206   0.672   2.104
 2704WAT     H1 8219   3.295   0.703   2.087
 2704WAT     H2 8220   3.204   0.585   2.065
 2705WAT      O 8221   2.317   1.163   2.645
 2705WAT     H1 8222   2.369   1.082   2.639
 2705WAT     H2 8223   2.272   1.156   2.729
 2706WAT      O 8224   2.806   1.289   2.172
 2706WAT     H1 8225   2.840   1.364   2.122
 2706WAT     H2 8226   2.723   1.320   2.208
 2707WAT      O 8227   2.066   0.859   3.336
 2707WAT     H1 8228   2.030   0.926   3.395
 2707WAT     H2 8229   2.036   0.776   3.373
 2708WAT      O 8230   2.386   0.905   3.624
 2708WAT     H1 8231   2.356   0.920   3.535
 2708WAT     H2 8232   2.463   0.849   3.615
 2709WAT      O 8233   2.920   1.385   3.424
 2709WAT     H1 8234   2.922   1.291   3.402
 2709WAT     H2 8235   2.850   1.393   3.488
 2710WAT      O 8236   3.434   0.803   2.051
 2710WAT     H1 8237   3.425   0.846   1.966
 2710WAT     H2 8238   3.506   0.849   2.094
 2711WAT      O 8239   3.541   1.049   3.359
 2711WAT     H1 8240   3.469   1.108   3.339
 2711WAT     H2 8241   3.594   1.048   3.279
 2712WAT      O 8242   3.536   1.488   2.324
 2712WAT     H1 8243   3.472   1.423   2.351
 2712WAT     H2 8244   3.498   1.529   2.246
 2713WAT      O 8245   3.094   1.221   2.708
 2713WAT     H1 8246   3.130   1.162   2.642
 2713WAT     H2 8247   3.006   1.189   2.725
 2714WAT      O 8248   2.703   1.297   2.449
 2714WAT     H1 8249   2.772   1.352   2.487
 2714WAT     H2 8250   2.624   1.352   2.453
 2715WAT      O 8251   1.917   0.859   1.998
 2715WAT     H1 8252   2.004   0.887   2.027
 2715WAT     H2 8253   1.868   0.940   1.987
 2716WAT      O 8254   2.633   0.998   2.410
 2716WAT     H1 8255   2.679   1.079   2.433
 2716WAT     H2 8256   2.598   0.966   2.493
 2717WAT      O 8257   2.864   1.549   3.133
 2717WAT     H1 8258   2.928   1.569   3.201
 2717WAT     H2 8259   2.900   1.473   3.088
 2718WAT      O 8260   2.991   1.349   3.005
 2718WAT     H1 8261   3.055   1.279   3.016
 2718WAT     H2 8262   3.043   1.427   2.987
 2719WAT      O 8263   3.375   1.378   1.977
 2719WAT     H1 8264   3.353   1.306   2.037
 2719WAT     H2 8265   3.336   1.353   1.894
 2720WAT      O 8266   3.168   1.429   3.325
 2720WAT     H1 8267   3.202   1.488   3.393
 2720WAT     H2 8268   3.076   1.416   3.348
 2721WAT      O 8269   1.954   1.780   2.055
 2721WAT     H1 8270   1.990   1.840   1.989
 2721WAT     H2 8271   1.940   1.835   2.132
 2722WAT      O 8272   3.334   1.169   2.144
 2722WAT     H1 8273   3.305   1.215   2.222
 2722WAT     H2 8274   3.413   1.123   2.170
 2723WAT      O 8275   1.952   1.607   3.502
 2723WAT     H1 8276   1.963   1.513   3.488
 2723WAT     H2 8277   1.887   1.633   3.437
 2724WAT      O 8278   2.751   1.434   3.642
 2724WAT     H1 8279   2.719   1.362   3.697
 2724WAT     H2 8280   2.684   1.502   3.650
 2725WAT      O 8281   2.555   1.519   2.137
 2725WAT     H1 8282   2.554   1.592   2.075
 2725WAT     H2 8283   2.463   1.494   2.146
 2726WAT      O 8284   2.115   1.041   2.211
 2726WAT     H1 8285   2.055   1.115   2.212
 2726WAT     H2 8286   2.163   1.050   2.128
 2727WAT      O 8287   3.073   0.457   3.179
 2727WAT     H1 8288   3.110   0.375   3.211
 2727WAT     H2 8289   2.987   0.463   3.220
 2728WAT      O 8290   3.409   0.353   2.259
 2728WAT     H1 8291   3.346   0.363   2.188
 2728WAT     H2 8292   3.360   0.375   2.338
 2729WAT      O 8293   2.854   1.525   2.003
 2729WAT     H1 8294   2.864   1.505   1.910
 2729WAT     H2 8295   2.764   1.499   2.023
 2730WAT      O 8296   2.606   0.581   2.401
 2730WAT     H1 8297   2.535   0.628   2.445
 2730WAT     H2 8298   2.635   0.515   2.465
 2731WAT      O 8299   2.769   0.723   3.201
 2731WAT     H1 8300   2.819   0.770   3.268
 2731WAT     H2 8301   2.783   0.630   3.222
 2732WAT      O 8302   3.009   0.253   2.545
 2732WAT     H1 8303   2.997   0.255   2.450
 2732WAT     H2 8304   3.104   0.258   2.557
 2733WAT      O 8305   2.718   1.777   2.472
 2733WAT     H1 8306   2.744   1.773   2.380
 2733WAT     H2 8307   2.623   1.764   2.472
 2734WAT      O 8308   2.427   0.412   2.139
 2734WAT     H1 8309   2.511   0.455   2.132
 2734WAT     H2 8310   2.390   0.443   2.221
 2735WAT      O 8311   3.489   0.344   3.285
 2735WAT     H1 8312   3.439   0.418   3.319
 2735WAT     H2 8313   3.571   0.383   3.254
 2736WAT      O 8314   3.319   0.869   2.630
 2736WAT     H1 8315   3.225   0.870   2.647
 2736WAT     H2 8316   3.350   0.790   2.674
 2737WAT      O 8317   2.316   1.037   1.986
 2737WAT     H1 8318   2.393   1.026   2.042
 2737WAT     H2 8319   2.324   0.967   1.921
 2738WAT      O 8320   2.186   0.780   2.054
 2738WAT     H1 8321   2.194   0.685   2.065
 2738WAT     H2 8322   2.275   0.813   2.065
 2739WAT      O 8323   3.519   1.586   2.797
 2739WAT     H1 8324   3.531   1.668   2.845
 2739WAT     H2 8325   3.606   1.565   2.763
 2740WAT      O 8326   2.266   1.795   2.765
 2740WAT     H1 8327   2.340   1.740   2.792
 2740WAT     H2 8328   2.304   1.882   2.751
 2741WAT      O 8329   1.955   1.402   2.352
 2741WAT     H1 8330   1.862   1.426   2.351
 2741WAT     H2 8331   2.001   1.485   2.340
 2742WAT      O 8332   2.167   1.714   3.683
 2742WAT     H1 8333   2.247   1.746   3.725
 2742WAT     H2 8334   2.115   1.678   3.756
 2743WAT      O 8335   2.577   1.712   1.947
 2743WAT     H1 8336   2.656   1.741   1.902
 2743WAT     H2 8337   2.525   1.669   1.879
 2744WAT      O 8338   3.050   1.324   3.678
 2744WAT     H1 8339   2.990   1.327   3.604
 2744WAT     H2 8340   3.020   1.251   3.732
 2745WAT      O 8341   3.193   1.697   3.539
 2745WAT     H1 8342   3.289   1.689   3.534
 2745WAT     H2 8343   3.179   1.764   3.607
 2746WAT      O 8344   3.482   1.635   2.089
 2746WAT     H1 8345   3.454   1.594   2.008
 2746WAT     H2 8346   3.463   1.728   2.077
 2747WAT      O 8347   1.939   0.962   3.578
 2747WAT     H1 8348   1.989   0.904   3.635
 2747WAT     H2 8349   1.865   0.991   3.632
 2748WAT      O 8350   2.629   1.234   1.933
 2748WAT     H1 8351   2.618   1.173   2.006
 2748WAT     H2 8352   2.612   1.182   1.855
 2749WAT      O 8353   2.644   1.103   3.531
 2749WAT     H1 8354   2.567   1.160   3.523
 2749WAT     H2 8355   2.662   1.074   3.442
 2750WAT      O 8356   2.953   1.141   1.994
 2750WAT     H1 8357   2.898   1.185   2.058
 2750WAT     H2 8358   3.015   1.090   2.046
 2751WAT      O 8359   3.358   1.276   3.587
 2751WAT     H1 8360   3.432   1.310   3.537
 2751WAT     H2 8361   3.282   1.293   3.532
 2752WAT      O 8362   2.142   0.777   3.667
 2752WAT     H1 8363   2.146   0.747   3.758
 2752WAT     H2 8364   2.227   0.817   3.651
 2753WAT      O 8365   2.520   1.037   2.183
 2753WAT     H1 8366   2.562   1.020   2.268
 2753WAT     H2 8367   2.532   0.956   2.134
 2754WAT      O 8368   2.336   0.635   3.464
 2754WAT     H1 8369   2.283   0.585   3.401
 2754WAT     H2 8370   2.403   0.677   3.411
 2755WAT      O 8371   2.771   0.939   1.908
 2755WAT     H1 8372   2.823   0.867   1.872
 2755WAT     H2 8373   2.836   1.003   1.938
 2756WAT      O 8374   3.226   1.081   3.440
 2756WAT     H1 8375   3.267   1.097   3.525
 2756WAT     H2 8376   3.132   1.094   3.457
 2757WAT      O 8377   3.273   0.815   3.641
 2757WAT     H1 8378   3.331   0.740   3.632
 2757WAT     H2 8379   3.291   0.868   3.563
 2758WAT      O 8380   2.385   0.331   3.472
 2758WAT     H1 8381   2.375   0.269   3.400
 2758WAT     H2 8382   2.327   0.404   3.449
 2759WAT      O 8383   2.702   1.076   3.237
 2759WAT     H1 8384   2.744   1.161   3.220
 2759WAT     H2 8385   2.610   1.090   3.215
 2760WAT      O 8386   2.935   0.850   3.376
 2760WAT     H1 8387   2.947   0.790   3.450
 2760WAT     H2 8388   3.021   0.853   3.334
 2761WAT      O 8389   3.169   0.905   3.233
 2761WAT     H1 8390   3.117   0.957   3.173
 2761WAT     H2 8391   3.204   0.968   3.297
 2762WAT      O 8392   2.409   0.644   1.878
 2762WAT     H1 8393   2.389   0.558   1.914
 2762WAT     H2 8394   2.392   0.635   1.784
 2763WAT      O 8395   2.487   1.707   3.349
 2763WAT     H1 8396   2.433   1.779   3.317
 2763WAT     H2 8397   2.512   1.659   3.270
 2764WAT      O 8398   2.612   0.504   3.502
 2764WAT     H1 8399   2.671   0.473   3.570
 2764WAT     H2 8400   2.530   0.457   3.517
 2765WAT      O 8401   3.094   0.465   3.525
 2765WAT     H1 8402   3.025   0.399   3.518
 2765WAT     H2 8403   3.166   0.421   3.569
 2766WAT      O 8404   2.289   0.354   1.877
 2766WAT     H1 8405   2.319   0.355   1.786
 2766WAT     H2 8406   2.363   0.319   1.926
 2767WAT      O 8407   2.773   1.830   3.375
 2767WAT     H1 8408   2.765   1.921   3.406
 2767WAT     H2 8409   2.682   1.799   3.372
 2768WAT      O 8410   2.611   0.248   1.975
 2768WAT     H1 8411   2.576   0.180   1.917
 2768WAT     H2 8412   2.631   0.202   2.057
 2769WAT      O 8413   2.827   1.747   2.137
 2769WAT     H1 8414   2.917   1.781   2.139
 2769WAT     H2 8415   2.831   1.675   2.074
 2770WAT      O 8416   2.191   1.284   1.960
 2770WAT     H1 8417   2.235   1.339   2.026
 2770WAT     H2 8418   2.240   1.202   1.961
 2771WAT      O 8419   1.913   1.563   2.705
 2771WAT     H1 8420   1.946   1.476   2.682
 2771WAT     H2 8421   1.956   1.584   2.788
 2772WAT      O 8422   2.372   1.396   2.471
 2772WAT     H1 8423   2.342   1.384   2.561
 2772WAT     H2 8424   2.362   1.310   2.430
 2773WAT      O 8425   1.962   1.650   2.979
 2773WAT     H1 8426   1.918   1.668   3.062
 2773WAT     H2 8427   2.018   1.726   2.965
 2774WAT      O 8428   3.525   1.600   3.408
 2774WAT     H1 8429   3.465   1.606   3.333
 2774WAT     H2 8430   3.538   1.506   3.421
 2775WAT      O 8431   3.649   1.374   1.942
 2775WAT     H1 8432   3.566   1.381   1.989
 2775WAT     H2 8433   3.667   1.463   1.911
 2776WAT      O 8434   3.595   1.049   2.192
 2776WAT     H1 8435   3.671   1.106   2.202
 2776WAT     H2 8436   3.596   0.992   2.269
 2777WAT      O 8437   1.945   0.901   2.615
 2777WAT     H1 8438   1.879   0.874   2.551
 2777WAT     H2 8439   2.029   0.890   2.570
 2778WAT      O 8440   3.696   1.134   2.676
 2778WAT     H1 8441   3.733   1.056   2.636
 2778WAT     H2 8442   3.760   1.203   2.658
 2779WAT      O 8443   3.394   1.273   3.218
 2779WAT     H1 8444   3.312   1.316   3.244
 2779WAT     H2 8445   3.435   1.334   3.156
 2780WAT      O 8446   3.600   1.078   1.908
 2780WAT     H1 8447   3.628   1.169   1.895
 2780WAT     H2 8448   3.581   1.072   2.001
 2781WAT      O 8449   3.240   0.381   2.037
 2781WAT     H1 8450   3.282   0.362   1.953
 2781WAT     H2 8451   3.209   0.295   2.068
 2782WAT      O 8452   3.590   0.872   2.407
 2782WAT     H1 8453   3.552   0.795   2.364
 2782WAT     H2 8454   3.517   0.910   2.456
 2783WAT      O 8455   2.049   0.940   3.069
 2783WAT     H1 8456   2.085   0.931   3.157
 2783WAT     H2 8457   1.992   0.863   3.059
 2784WAT      O 8458   3.529   0.786   3.370
 2784WAT     H1 8459   3.506   0.764   3.280
 2784WAT     H2 8460   3.555   0.878   3.366
 2785WAT      O 8461   2.004   0.631   3.460
 2785WAT     H1 8462   1.914   0.627   3.493
 2785WAT     H2 8463   2.058   0.651   3.536
 2786WAT      O 8464   3.373   0.309   3.648
 2786WAT     H1 8465   3.460   0.310   3.686
 2786WAT     H2 8466   3.374   0.235   3.587
 2787WAT      O 8467   1.866   0.622   2.209
 2787WAT     H1 8468   1.776   0.648   2.192
 2787WAT     H2 8469   1.915   0.649   2.131
 2788WAT      O 8470   3.517   0.694   2.737
 2788WAT     H1 8471   3.570   0.645   2.674
 2788WAT     H2 8472   3.576   0.708   2.811
 2789WAT      O 8473   3.535   0.703   3.089
 2789WAT     H1 8474   3.440   0.699   3.101
 2789WAT     H2 8475   3.553   0.794   3.066
 2790WAT      O 8476   2.121   0.528   2.000
 2790WAT     H1 8477   2.192   0.486   1.952
 2790WAT     H2 8478   2.049   0.535   1.937
 2791WAT      O 8479   3.466   0.620   2.331
 2791WAT     H1 8480   3.516   0.597   2.409
 2791WAT     H2 8481   3.446   0.536   2.289
 2792WAT      O 8482   3.609   0.484   2.584
 2792WAT     H1 8483   3.598   0.468   2.678
 2792WAT     H2 8484   3.685   0.431   2.560
 2793WAT      O 8485   3.698   0.267   1.908
 2793WAT     H1 8486   3.791   0.254   1.887
 2793WAT     H2 8487   3.696   0.275   2.004
 2794WAT      O 8488   3.705   0.344   2.171
 2794WAT     H1 8489   3.626   0.337   2.224
 2794WAT     H2 8490   3.726   0.437   2.170
 2795WAT      O 8491   3.400   1.748   2.570
 2795WAT     H1 8492   3.459   1.716   2.503
 2795WAT     H2 8493   3.425   1.700   2.649
 2796WAT      O 8494   2.190   1.391   3.585
 2796WAT     H1 8495   2.186   1.354   3.673
 2796WAT     H2 8496   2.203   1.485   3.599
 2797WAT      O 8497   2.560   1.547   3.145
 2797WAT     H1 8498   2.536   1.573   3.057
 2797WAT     H2 8499   2.654   1.564   3.151
 2798WAT      O 8500   2.781   0.193   3.521
 2798WAT     H1 8501   2.775   0.252   3.596
 2798WAT     H2 8502   2.875   0.182   3.506
 2799WAT      O 8503   3.686   1.748   3.225
 2799WAT     H1 8504   3.637   1.788   3.154
 2799WAT     H2 8505   3.625   1.686   3.265
 2800WAT      O 8506   2.174   1.686   3.297
 2800WAT     H1 8507   2.115   1.672   3.371
 2800WAT     H2 8508   2.173   1.602   3.251
 2801WAT      O 8509   3.455   1.813   2.953
 2801WAT     H1 8510   3.409   1.888   2.916
 2801WAT     H2 8511   3.392   1.741   2.947
 2802WAT      O 8512   2.137   1.422   3.192
 2802WAT     H1 8513   2.065   1.360   3.185
 2802WAT     H2 8514   2.143   1.462   3.105
 2803WAT      O 8515   2.498   1.644   2.871
 2803WAT     H1 8516   2.549   1.582   2.818
 2803WAT     H2 8517   2.563   1.694   2.920
 2804WAT      O 8518   2.772   1.733   2.953
 2804WAT     H1 8519   2.800   1.707   2.866
 2804WAT     H2 8520   2.823   1.677   3.012
 2805WAT      O 8521   3.349   0.177   2.816
 2805WAT     H1 8522   3.393   0.171   2.731
 2805WAT     H2 8523   3.322   0.268   2.823
 2806WAT      O 8524   1.966   1.754   2.513
 2806WAT     H1 8525   1.949   1.691   2.583
 2806WAT     H2 8526   1.879   1.775   2.478
 2807WAT      O 8527   2.682   0.348   2.563
 2807WAT     H1 8528   2.601   0.311   2.528
 2807WAT     H2 8529   2.732   0.273   2.593
 2808WAT      O 8530   2.126   1.623   2.258
 2808WAT     H1 8531   2.074   1.661   2.187
 2808WAT     H2 8532   2.119   1.686   2.330
 2809WAT      O 8533   2.778   1.825   3.690
 2809WAT     H1 8534   2.871   1.801   3.694
 2809WAT     H2 8535   2.777   1.908   3.642
 2810WAT      O 8536   3.602   1.779   2.390
 2810WAT     H1 8537   3.619   1.710   2.325
 2810WAT     H2 8538   3.532   1.832   2.351
 2811WAT      O 8539   2.386   1.818   2.145
 2811WAT     H1 8540   2.459   1.790   2.090
 2811WAT     H2 8541   2.412   1.794   2.234
 2812WAT      O 8542   2.302   1.430   2.146
 2812WAT     H1 8543   2.239   1.477   2.201
 2812WAT     H2 8544   2.314   1.345   2.189
 2813WAT      O 8545   3.435   1.748   3.672
 2813WAT     H1 8546   3.514   1.698   3.652
 2813WAT     H2 8547   3.464   1.815   3.733
 2814WAT      O 8548   3.048   0.835   0.761
 2814WAT     H1 8549   3.040   0.743   0.734
 2814WAT     H2 8550   3.006   0.884   0.690
 2815WAT      O 8551   2.861   1.013   0.949
 2815WAT     H1 8552   2.783   0.965   0.978
 2815WAT     H2 8553   2.926   0.945   0.931
 2816WAT      O 8554   2.263   1.044   1.037
 2816WAT     H1 8555   2.179   1.018   1.076
 2816WAT     H2 8556   2.323   1.051   1.110
 2817WAT      O 8557   3.263   1.453   0.827
 2817WAT     H1 8558   3.217   1.376   0.860
 2817WAT     H2 8559   3.344   1.456   0.877
 2818WAT      O 8560   2.261   1.447   1.056
 2818WAT     H1 8561   2.291   1.358   1.038
 2818WAT     H2 8562   2.335   1.503   1.033
 2819WAT      O 8563   2.103   0.540   0.415
 2819WAT     H1 8564   2.015   0.574   0.405
 2819WAT     H2 8565   2.132   0.520   0.326
 2820WAT      O 8566   1.900   0.800   1.003
 2820WAT     H1 8567   1.957   0.723   1.003
 2820WAT     H2 8568   1.900   0.830   0.912
 2821WAT      O 8569   2.886   1.682   0.789
 2821WAT     H1 8570   2.824   1.727   0.732
 2821WAT     H2 8571   2.971   1.697   0.749
 2822WAT      O 8572   2.805   1.280   0.949
 2822WAT     H1 8573   2.798   1.186   0.933
 2822WAT     H2 8574   2.881   1.289   1.007
 2823WAT      O 8575   2.024   0.341   1.182
 2823WAT     H1 8576   2.006   0.251   1.210
 2823WAT     H2 8577   1.984   0.395   1.249
 2824WAT      O 8578   2.908   0.561   0.972
 2824WAT     H1 8579   2.946   0.474   0.961
 2824WAT     H2 8580   2.898   0.594   0.883
 2825WAT      O 8581   2.321   0.398   0.518
 2825WAT     H1 8582   2.332   0.488   0.549
 2825WAT     H2 8583   2.230   0.393   0.489
 2826WAT      O 8584   3.286   0.310   0.665
 2826WAT     H1 8585   3.368   0.261   0.670
 2826WAT     H2 8586   3.290   0.369   0.741
 2827WAT      O 8587   2.086   0.590   1.043
 2827WAT     H1 8588   2.154   0.617   1.105
 2827WAT     H2 8589   2.054   0.506   1.076
 2828WAT      O 8590   2.505   0.695   0.952
 2828WAT     H1 8591   2.556   0.745   1.016
 2828WAT     H2 8592   2.558   0.617   0.934
 2829WAT      O 8593   3.715   0.512   1.322
 2829WAT     H1 8594   3.645   0.551   1.270
 2829WAT     H2 8595   3.742   0.582   1.382
 2830WAT      O 8596   2.972   1.170   0.528
 2830WAT     H1 8597   2.910   1.217   0.472
 2830WAT     H2 8598   3.023   1.239   0.570
 2831WAT      O 8599   2.459   1.123   1.196
 2831WAT     H1 8600   2.425   1.186   1.260
 2831WAT     H2 8601   2.476   1.176   1.118
 2832WAT      O 8602   3.310   0.504   0.943
 2832WAT     H1 8603   3.239   0.533   1.001
 2832WAT     H2 8604   3.346   0.585   0.907
 2833WAT      O 8605   2.302   0.330   1.179
 2833WAT     H1 8606   2.336   0.414   1.149
 2833WAT     H2 8607   2.208   0.345   1.191
 2834WAT      O 8608   2.380   1.320   1.377
 2834WAT     H1 8609   2.442   1.387   1.349
 2834WAT     H2 8610   2.294   1.361   1.368
 2835WAT      O 8611   1.909   1.239   0.265
 2835WAT     H1 8612   1.871   1.288   0.192
 2835WAT     H2 8613   1.935   1.306   0.329
 2836WAT      O 8614   3.472   1.466   1.169
 2836WAT     H1 8615   3.403   1.533   1.168
 2836WAT     H2 8616   3.525   1.486   1.092
 2837WAT      O 8617   3.617   0.449   0.982
 2837WAT     H1 8618   3.522   0.452   0.995
 2837WAT     H2 8619   3.649   0.530   1.020
 2838WAT      O 8620   3.225   1.651   1.040
 2838WAT     H1 8621   3.226   1.610   0.954
 2838WAT     H2 8622   3.170   1.728   1.030
 2839WAT      O 8623   3.355   1.323   0.549
 2839WAT     H1 8624   3.344   1.228   0.562
 2839WAT     H2 8625   3.354   1.359   0.638
 2840WAT      O 8626   3.165   1.141   1.173
 2840WAT     H1 8627   3.207   1.119   1.090
 2840WAT     H2 8628   3.237   1.167   1.230
 2841WAT      O 8629   2.909   0.885   0.485
 2841WAT     H1 8630   2.816   0.879   0.508
 2841WAT     H2 8631   2.924   0.979   0.474
 2842WAT      O 8632   3.560   0.981   1.182
 2842WAT     H1 8633   3.477   0.988   1.135
 2842WAT     H2 8634   3.619   1.039   1.136
 2843WAT      O 8635   3.312   1.042   0.535
 2843WAT     H1 8636   3.250   1.008   0.471
 2843WAT     H2 8637   3.310   0.977   0.606
 2844WAT      O 8638   3.256   0.659   1.277
 2844WAT     H1 8639   3.215   0.742   1.302
 2844WAT     H2 8640   3.183   0.601   1.258
 2845WAT      O 8641   2.469   0.938   0.763
 2845WAT     H1 8642   2.429   0.867   0.714
 2845WAT     H2 8643   2.478   0.904   0.852
 2846WAT      O 8644   2.516   1.307   0.980
 2846WAT     H1 8645   2.486   1.246   0.912
 2846WAT     H2 8646   2.611   1.310   0.968
 2847WAT      O 8647   2.341   0.615   1.141
 2847WAT     H1 8648   2.396   0.626   1.064
 2847WAT     H2 8649   2.392   0.653   1.213
 2848WAT      O 8650   3.325   1.664   1.346
 2848WAT     H1 8651   3.277   1.745   1.327
 2848WAT     H2 8652   3.257   1.599   1.361
 2849WAT      O 8653   2.425   1.280   1.645
 2849WAT     H1 8654   2.336   1.303   1.669
 2849WAT     H2 8655   2.428   1.293   1.550
 2850WAT      O 8656   3.129   0.965   0.236
 2850WAT     H1 8657   3.173   0.882   0.221
 2850WAT     H2 8658   3.201   1.029   0.245
 2851WAT      O 8659   2.308   0.968   1.502
 2851WAT     H1 8660   2.294   1.055   1.539
 2851WAT     H2 8661   2.220   0.933   1.488
 2852WAT      O 8662   2.940   1.459   0.633
 2852WAT     H1 8663   2.984   1.534   0.591
 2852WAT     H2 8664   2.934   1.484   0.725
 2853WAT      O 8665   2.488   1.562   1.723
 2853WAT     H1 8666   2.485   1.602   1.636
 2853WAT     H2 8667   2.472   1.469   1.707
 2854WAT      O 8668   2.139   0.827   0.513
 2854WAT     H1 8669   2.127   0.900   0.452
 2854WAT     H2 8670   2.108   0.750   0.465
 2855WAT      O 8671   3.683   1.640   1.853
 2855WAT     H1 8672   3.731   1.688   1.921
 2855WAT     H2 8673   3.745   1.633   1.780
 2856WAT      O 8674   1.903   1.145   1.094
 2856WAT     H1 8675   1.911   1.158   0.999
 2856WAT     H2 8676   1.965   1.074   1.113
 2857WAT      O 8677   2.028   1.315   0.735
 2857WAT     H1 8678   1.987   1.329   0.650
 2857WAT     H2 8679   2.117   1.286   0.715
 2858WAT      O 8680   3.623   1.359   1.569
 2858WAT     H1 8681   3.636   1.335   1.477
 2858WAT     H2 8682   3.628   1.276   1.616
 2859WAT      O 8683   3.010   1.730   1.426
 2859WAT     H1 8684   3.061   1.721   1.506
 2859WAT     H2 8685   2.925   1.764   1.455
 2860WAT      O 8686   3.207   1.758   0.368
 2860WAT     H1 8687   3.191   1.729   0.458
 2860WAT     H2 8688   3.191   1.680   0.315
 2861WAT      O 8689   2.455   1.736   0.546
 2861WAT     H1 8690   2.437   1.644   0.525
 2861WAT     H2 8691   2.369   1.772   0.570
 2862WAT      O 8692   3.134   1.672   0.632
 2862WAT     H1 8693   3.179   1.593   0.663
 2862WAT     H2 8694   3.168   1.743   0.686
 2863WAT      O 8695   3.609   0.565   1.665
 2863WAT     H1 8696   3.547   0.615   1.612
 2863WAT     H2 8697   3.577   0.475   1.659
 2864WAT      O 8698   1.909   1.249   1.348
 2864WAT     H1 8699   1.925   1.202   1.266
 2864WAT     H2 8700   1.955   1.198   1.414
 2865WAT      O 8701   2.815   0.448   1.412
 2865WAT     H1 8702   2.769   0.469   1.493
 2865WAT     H2 8703   2.775   0.367   1.382
 2866WAT      O 8704   3.315   0.571   1.525
 2866WAT     H1 8705   3.230   0.541   1.557
 2866WAT     H2 8706   3.299   0.595   1.434
 2867WAT      O 8707   3.024   0.721   1.735
 2867WAT     H1 8708   3.057   0.637   1.701
 2867WAT     H2 8709   3.103   0.773   1.750
 2868WAT      O 8710   2.590   0.216   1.037
 2868WAT     H1 8711   2.620   0.307   1.029
 2868WAT     H2 8712   2.645   0.167   0.976
 2869WAT      O 8713   2.365   0.674   0.624
 2869WAT     H1 8714   2.343   0.653   0.715
 2869WAT     H2 8715   2.287   0.717   0.590
 2870WAT      O 8716   3.088   0.675   0.484
 2870WAT     H1 8717   3.028   0.747   0.466
 2870WAT     H2 8718   3.143   0.669   0.406
 2871WAT      O 8719   2.609   0.764   1.691
 2871WAT     H1 8720   2.600   0.670   1.676
 2871WAT     H2 8721   2.693   0.786   1.651
 2872WAT      O 8722   2.949   0.538   0.687
 2872WAT     H1 8723   2.988   0.570   0.606
 2872WAT     H2 8724   2.985   0.451   0.699
 2873WAT      O 8725   2.122   0.405   1.506
 2873WAT     H1 8726   2.083   0.490   1.527
 2873WAT     H2 8727   2.053   0.341   1.525
 2874WAT      O 8728   2.780   0.413   1.813
 2874WAT     H1 8729   2.711   0.394   1.877
 2874WAT     H2 8730   2.854   0.442   1.866
 2875WAT      O 8731   3.007   0.797   1.097
 2875WAT     H1 8732   2.934   0.848   1.132
 2875WAT     H2 8733   2.968   0.716   1.067
 2876WAT      O 8734   2.651   0.465   0.937
 2876WAT     H1 8735   2.651   0.421   0.852
 2876WAT     H2 8736   2.741   0.497   0.948
 2877WAT      O 8737   2.236   0.453   0.833
 2877WAT     H1 8738   2.202   0.501   0.909
 2877WAT     H2 8739   2.160   0.408   0.797
 2878WAT      O 8740   2.657   0.565   0.236
 2878WAT     H1 8741   2.669   0.561   0.331
 2878WAT     H2 8742   2.619   0.651   0.221
 2879WAT      O 8743   3.054   0.343   1.038
 2879WAT     H1 8744   3.055   0.388   1.122
 2879WAT     H2 8745   3.029   0.253   1.059
 2880WAT      O 8746   2.066   1.186   1.564
 2880WAT     H1 8747   2.028   1.122   1.624
 2880WAT     H2 8748   2.097   1.257   1.621
 2881WAT      O 8749   2.681   0.871   1.112
 2881WAT     H1 8750   2.718   0.824   1.187
 2881WAT     H2 8751   2.662   0.958   1.146
 2882WAT      O 8752   1.968   0.345   0.725
 2882WAT     H1 8753   1.939   0.309   0.809
 2882WAT     H2 8754   1.961   0.272   0.663
 2883WAT      O 8755   2.460   0.775   1.344
 2883WAT     H1 8756   2.430   0.863   1.366
 2883WAT     H2 8757   2.556   0.781   1.347
 2884WAT      O 8758   2.313   1.196   0.403
 2884WAT     H1 8759   2.236   1.142   0.387
 2884WAT     H2 8760   2.386   1.144   0.370
 2885WAT      O 8761   3.389   1.095   0.983
 2885WAT     H1 8762   3.461   1.145   0.944
 2885WAT     H2 8763   3.369   1.028   0.918
 2886WAT      O 8764   2.935   0.235   0.397
 2886WAT     H1 8765   2.854   0.185   0.389
 2886WAT     H2 8766   2.916   0.319   0.355
 2887WAT      O 8767   2.927   1.102   1.571
 2887WAT     H1 8768   2.920   1.010   1.546
 2887WAT     H2 8769   2.864   1.112   1.643
 2888WAT      O 8770   3.206   0.672   0.227
 2888WAT     H1 8771   3.295   0.703   0.209
 2888WAT     H2 8772   3.204   0.585   0.187
 2889WAT      O 8773   2.317   1.163   0.767
 2889WAT     H1 8774   2.369   1.082   0.762
 2889WAT     H2 8775   2.272   1.156   0.851
 2890WAT      O 8776   2.806   1.289   0.294
 2890WAT     H1 8777   2.840   1.364   0.245
 2890WAT     H2 8778   2.723   1.320   0.331
 2891WAT      O 8779   2.066   0.859   1.458
 2891WAT     H1 8780   2.030   0.926   1.517
 2891WAT     H2 8781   2.036   0.776   1.496
 2892WAT      O 8782   2.386   0.905   1.747
 2892WAT     H1 8783   2.356   0.920   1.657
 2892WAT     H2 8784   2.463   0.849   1.738
 2893WAT      O 8785   2.920   1.385   1.546
 2893WAT     H1 8786   2.922   1.291   1.525
 2893WAT     H2 8787   2.850   1.393   1.610
 2894WAT      O 8788   3.541   1.049   1.481
 2894WAT     H1 8789   3.469   1.108   1.461
 2894WAT     H2 8790   3.594   1.048   1.401
 2895WAT      O 8791   3.536   1.488   0.446
 2895WAT     H1 8792   3.472   1.423   0.474
 2895WAT     H2 8793   3.498   1.529   0.369
 2896WAT      O 8794   3.094   1.221   0.831
 2896WAT     H1 8795   3.130   1.162   0.765
 2896WAT     H2 8796   3.006   1.189   0.848
 2897WAT      O 8797   2.703   1.297   0.572
 2897WAT     H1 8798   2.772   1.352   0.610
 2897WAT     H2 8799   2.624   1.352   0.575
 2898WAT      O 8800   2.633   0.998   0.533
 2898WAT     H1 8801   2.679   1.079   0.555
 2898WAT     H2 8802   2.598   0.966   0.616
 2899WAT      O 8803   2.864   1.549   1.256
 2899WAT     H1 8804   2.928   1.569   1.324
 2899WAT     H2 8805   2.900   1.473   1.211
 2900WAT      O 8806   2.991   1.349   1.128
 2900WAT     H1 8807   3.055   1.279   1.139
 2900WAT     H2 8808   3.043   1.427   1.110
 2901WAT      O 8809   3.168   1.429   1.448
 2901WAT     H1 8810   3.202   1.488   1.516
 2901WAT     H2 8811   3.076   1.416   1.471
 2902WAT      O 8812   3.334   1.169   0.266
 2902WAT     H1 8813   3.305   1.215   0.345
 2902WAT     H2 8814   3.413   1.123   0.293
 2903WAT      O 8815   1.952   1.607   1.625
 2903WAT     H1 8816   1.963   1.513   1.611
 2903WAT     H2 8817   1.887   1.633   1.560
 2904WAT      O 8818   2.751   1.434   1.765
 2904WAT     H1 8819   2.719   1.362   1.819
 2904WAT     H2 8820   2.684   1.502   1.772
 2905WAT      O 8821   2.555   1.519   0.259
 2905WAT     H1 8822   2.554   1.592   0.198
 2905WAT     H2 8823   2.463   1.494   0.268
 2906WAT      O 8824   2.115   1.041   0.334
 2906WAT     H1 8825   2.055   1.115   0.335
 2906WAT     H2 8826   2.163   1.050   0.251
 2907WAT      O 8827   3.073   0.457   1.301
 2907WAT     H1 8828   3.110   0.375   1.334
 2907WAT     H2 8829   2.987   0.463   1.343
 2908WAT      O 8830   3.409   0.353   0.382
 2908WAT     H1 8831   3.346   0.363   0.311
 2908WAT     H2 8832   3.360   0.375   0.461
 2909WAT      O 8833   2.606   0.581   0.524
 2909WAT     H1 8834   2.535   0.628   0.568
 2909WAT     H2 8835   2.635   0.515   0.587
 2910WAT      O 8836   2.769   0.723   1.324
 2910WAT     H1 8837   2.819   0.770   1.390
 2910WAT     H2 8838   2.783   0.630   1.344
 2911WAT      O 8839   3.009   0.253   0.668
 2911WAT     H1 8840   2.997   0.255   0.573
 2911WAT     H2 8841   3.104   0.258   0.680
 2912WAT      O 8842   2.718   1.777   0.595
 2912WAT     H1 8843   2.744   1.773   0.503
 2912WAT     H2 8844   2.623   1.764   0.594
 2913WAT      O 8845   2.427   0.412   0.261
 2913WAT     H1 8846   2.511   0.455   0.255
 2913WAT     H2 8847   2.390   0.443   0.344
 2914WAT      O 8848   3.489   0.344   1.408
 2914WAT     H1 8849   3.439   0.418   1.442
 2914WAT     H2 8850   3.571   0.383   1.376
 2915WAT      O 8851   3.319   0.869   0.752
 2915WAT     H1 8852   3.225   0.870   0.770
 2915WAT     H2 8853   3.350   0.790   0.797
 2916WAT      O 8854   2.186   0.780   0.177
 2916WAT     H1 8855   2.194   0.685   0.188
 2916WAT     H2 8856   2.275   0.813   0.187
 2917WAT      O 8857   3.519   1.586   0.920
 2917WAT     H1 8858   3.531   1.668   0.967
 2917WAT     H2 8859   3.606   1.565   0.885
 2918WAT      O 8860   2.266   1.795   0.887
 2918WAT     H1 8861   2.340   1.740   0.914
 2918WAT     H2 8862   2.304   1.882   0.873
 2919WAT      O 8863   1.955   1.402   0.475
 2919WAT     H1 8864   1.862   1.426   0.474
 2919WAT     H2 8865   2.001   1.485   0.462
 2920WAT      O 8866   2.167   1.714   1.806
 2920WAT     H1 8867   2.247   1.746   1.847
 2920WAT     H2 8868   2.115   1.678   1.878
 2921WAT      O 8869   3.050   1.324   1.801
 2921WAT     H1 8870   2.990   1.327   1.727
 2921WAT     H2 8871   3.020   1.251   1.854
 2922WAT      O 8872   3.193   1.697   1.662
 2922WAT     H1 8873   3.289   1.689   1.657
 2922WAT     H2 8874   3.179   1.764   1.729
 2923WAT      O 8875   1.939   0.962   1.700
 2923WAT     H1 8876   1.989   0.904   1.758
 2923WAT     H2 8877   1.865   0.991   1.754
 2924WAT      O 8878   2.644   1.103   1.654
 2924WAT     H1 8879   2.567   1.160   1.645
 2924WAT     H2 8880   2.662   1.074   1.564
 2925WAT      O 8881   3.358   1.276   1.709
 2925WAT     H1 8882   3.432   1.310   1.659
 2925WAT     H2 8883   3.282   1.293   1.654
 2926WAT      O 8884   2.142   0.777   1.790
 2926WAT     H1 8885   2.146   0.747   1.881
 2926WAT     H2 8886   2.227   0.817   1.774
 2927WAT      O 8887   2.520   1.037   0.306
 2927WAT     H1 8888   2.562   1.020   0.390
 2927WAT     H2 8889   2.532   0.956   0.256
 2928WAT      O 8890   2.336   0.635   1.587
 2928WAT     H1 8891   2.283   0.585   1.524
 2928WAT     H2 8892   2.403   0.677   1.533
 2929WAT      O 8893   3.226   1.081   1.563
 2929WAT     H1 8894   3.267   1.097   1.648
 2929WAT     H2 8895   3.132   1.094   1.579
 2930WAT      O 8896   3.273   0.815   1.763
 2930WAT     H1 8897   3.331   0.740   1.755
 2930WAT     H2 8898   3.291   0.868   1.686
 2931WAT      O 8899   2.385   0.331   1.595
 2931WAT     H1 8900   2.375   0.269   1.522
 2931WAT     H2 8901   2.327   0.404   1.572
 2932WAT      O 8902   2.702   1.076   1.360
 2932WAT     H1 8903   2.744   1.161   1.343
 2932WAT     H2 8904   2.610   1.090   1.337
 2933WAT      O 8905   2.935   0.850   1.498
 2933WAT     H1 8906   2.947   0.790   1.572
 2933WAT     H2 8907   3.021   0.853   1.456
 2934WAT      O 8908   3.169   0.905   1.356
 2934WAT     H1 8909   3.117   0.957   1.296
 2934WAT     H2 8910   3.204   0.968   1.419
 2935WAT      O 8911   2.487   1.707   1.472
 2935WAT     H1 8912   2.433   1.779   1.440
 2935WAT     H2 8913   2.512   1.659   1.393
 2936WAT      O 8914   2.612   0.504   1.624
 2936WAT     H1 8915   2.671   0.473   1.693
 2936WAT     H2 8916   2.530   0.457   1.640
 2937WAT      O 8917   3.094   0.465   1.647
 2937WAT     H1 8918   3.025   0.399   1.641
 2937WAT     H2 8919   3.166   0.421   1.692
 2938WAT      O 8920   2.773   1.830   1.497
 2938WAT     H1 8921   2.765   1.921   1.528
 2938WAT     H2 8922   2.682   1.799   1.495
 2939WAT      O 8923   2.827   1.747   0.260
 2939WAT     H1 8924   2.917   1.781   0.262
 2939WAT     H2 8925   2.831   1.675   0.197
 2940WAT      O 8926   1.913   1.563   0.828
 2940WAT     H1 8927   1.946   1.476   0.805
 2940WAT     H2 8928   1.956   1.584   0.911
 2941WAT      O 8929   2.372   1.396   0.594
 2941WAT     H1 8930   2.342   1.384   0.684
 2941WAT     H2 8931   2.362   1.310   0.553
 2942WAT      O 8932   1.962   1.650   1.102
 2942WAT     H1 8933   1.918   1.668   1.185
 2942WAT     H2 8934   2.018   1.726   1.087
 2943WAT      O 8935   3.525   1.600   1.530
 2943WAT     H1 8936   3.465   1.606   1.456
 2943WAT     H2 8937   3.538   1.506   1.543
 2944WAT      O 8938   3.595   1.049   0.314
 2944WAT     H1 8939   3.671   1.106   0.325
 2944WAT     H2 8940   3.596   0.992   0.392
 2945WAT      O 8941   1.945   0.901   0.737
 2945WAT     H1 8942   1.879   0.874   0.673
 2945WAT     H2 8943   2.029   0.890   0.693
 2946WAT      O 8944   3.696   1.134   0.799
 2946WAT     H1 8945   3.733   1.056   0.758
 2946WAT     H2 8946   3.760   1.203   0.781
 2947WAT      O 8947   3.394   1.273   1.340
 2947WAT     H1 8948   3.312   1.316   1.366
 2947WAT     H2 8949   3.435   1.334   1.279
 2948WAT      O 8950   3.590   0.872   0.529
 2948WAT     H1 8951   3.552   0.795   0.486
 2948WAT     H2 8952   3.517   0.910   0.578
 2949WAT      O 8953   2.049   0.940   1.192
 2949WAT     H1 8954   2.085   0.931   1.279
 2949WAT     H2 8955   1.992   0.863   1.182
 2950WAT      O 8956   3.529   0.786   1.493
 2950WAT     H1 8957   3.506   0.764   1.403
 2950WAT     H2 8958   3.555   0.878   1.488
 2951WAT      O 8959   2.004   0.631   1.582
 2951WAT     H1 8960   1.914   0.627   1.616
 2951WAT     H2 8961   2.058   0.651   1.659
 2952WAT      O 8962   3.373   0.309   1.771
 2952WAT     H1 8963   3.460   0.310   1.809
 2952WAT     H2 8964   3.374   0.235   1.710
 2953WAT      O 8965   1.866   0.622   0.332
 2953WAT     H1 8966   1.776   0.648   0.314
 2953WAT     H2 8967   1.915   0.649   0.254
 2954WAT      O 8968   3.517   0.694   0.860
 2954WAT     H1 8969   3.570   0.645   0.796
 2954WAT     H2 8970   3.576   0.708   0.934
 2955WAT      O 8971   3.535   0.703   1.212
 2955WAT     H1 8972   3.440   0.699   1.223
 2955WAT     H2 8973   3.553   0.794   1.188
 2956WAT      O 8974   3.466   0.620   0.453
 2956WAT     H1 8975   3.516   0.597   0.532
 2956WAT     H2 8976   3.446   0.536   0.412
 2957WAT      O 8977   3.609   0.484   0.707
 2957WAT     H1 8978   3.598   0.468   0.801
 2957WAT     H2 8979   3.685   0.431   0.683
 2958WAT      O 8980   3.705   0.344   0.293
 2958WAT     H1 8981   3.626   0.337   0.346
 2958WAT     H2 8982   3.726   0.437   0.292
 2959WAT      O 8983   3.400   1.748   0.693
 2959WAT     H1 8984   3.459   1.716   0.625
 2959WAT     H2 8985   3.425   1.700   0.772
 2960WAT      O 8986   2.190   1.391   1.708
 2960WAT     H1 8987   2.186   1.354   1.796
 2960WAT     H2 8988   2.203   1.485   1.722
 2961WAT      O 8989   2.560   1.547   1.268
 2961WAT     H1 8990   2.536   1.573   1.179
 2961WAT     H2 8991   2.654   1.564   1.273
 2962WAT      O 8992   2.781   0.193   1.643
 2962WAT     H1 8993   2.775   0.252   1.718
 2962WAT     H2 8994   2.875   0.182   1.629
 2963WAT      O 8995   3.686   1.748   1.348
 2963WAT     H1 8996   3.637   1.788   1.276
 2963WAT     H2 8997   3.625   1.686   1.387
 2964WAT      O 8998   2.174   1.686   1.420
 2964WAT     H1 8999   2.115   1.672   1.494
 2964WAT     H2 9000   2.173   1.602   1.373
 2965WAT      O 9001   3.455   1.813   1.076
 2965WAT     H1 9002   3.409   1.888   1.038
 2965WAT     H2 9003   3.392   1.741   1.070
 2966WAT      O 9004   2.137   1.422   1.315
 2966WAT     H1 9005   2.065   1.360   1.308
 2966WAT     H2 9006   2.143   1.462   1.228
 2967WAT      O 9007   2.498   1.644   0.993
 2967WAT     H1 9008   2.549   1.582   0.941
 2967WAT     H2 9009   2.563   1.694   1.042
 2968WAT      O 9010   2.772   1.733   1.076
 2968WAT     H1 9011   2.800   1.707   0.988
 2968WAT     H2 9012   2.823   1.677   1.135
 2969WAT      O 9013   3.349   0.177   0.938
 2969WAT     H1 9014   3.393   0.171   0.854
 2969WAT     H2 9015   3.322   0.268   0.946
 2970WAT      O 9016   1.966   1.754   0.636
 2970WAT     H1 9017   1.949   1.691   0.706
 2970WAT     H2 9018   1.879   1.775   0.601
 2971WAT      O 9019   2.682   0.348   0.685
 2971WAT     H1 9020   2.601   0.311   0.651
 2971WAT     H2 9021   2.732   0.273   0.715
 2972WAT      O 9022   2.126   1.623   0.380
 2972WAT     H1 9023   2.074   1.661   0.310
 2972WAT     H2 9024   2.119   1.686   0.452
 2973WAT      O 9025   2.778   1.825   1.813
 2973WAT     H1 9026   2.871   1.801   1.817
 2973WAT     H2 9027   2.777   1.908   1.765
 2974WAT      O 9028   3.602   1.779   0.512
 2974WAT     H1 9029   3.619   1.710   0.448
 2974WAT     H2 9030   3.532   1.832   0.473
 2975WAT      O 9031   2.386   1.818   0.268
 2975WAT     H1 9032   2.459   1.790   0.213
 2975WAT     H2 9033   2.412   1.794   0.357
 2976WAT      O 9034   2.302   1.430   0.268
 2976WAT     H1 9035   2.239   1.477   0.323
 2976WAT     H2 9036   2.314   1.345   0.312
 2977WAT      O 9037   3.435   1.748   1.795
 2977WAT     H1 9038   3.514   1.698   1.774
 2977WAT     H2 9039   3.464   1.815   1.856
 2978WAT      O 9040   1.170   4.590   4.516
 2978WAT     H1 9041   1.162   4.498   4.488
 2978WAT     H2 9042   1.129   4.639   4.445
 2979WAT      O 9043   0.983   4.767   4.704
 2979WAT     H1 9044   0.906   4.719   4.733
 2979WAT     H2 9045   1.049   4.699   4.686
 2980WAT      O 9046   0.385   4.799   4.791
 2980WAT     H1 9047   0.302   4.773   4.831
 2980WAT     H2 9048   0.446   4.806   4.865
 2981WAT      O 9049   1.386   5.208   4.582
 2981WAT     H1 9050   1.339   5.131   4.614
 2981WAT     H2 9051   1.467   5.211   4.632
 2982WAT      O 9052   0.383   5.202   4.811
 2982WAT     H1 9053   0.413   5.113   4.793
 2982WAT     H2 9054   0.458   5.258   4.788
 2983WAT      O 9055   0.928   5.035   4.704
 2983WAT     H1 9056   0.921   4.941   4.688
 2983WAT     H2 9057   1.004   5.044   4.762
 2984WAT      O 9058   1.031   4.316   4.727
 2984WAT     H1 9059   1.068   4.228   4.716
 2984WAT     H2 9060   1.021   4.349   4.638
 2985WAT      O 9061   0.444   4.153   4.273
 2985WAT     H1 9062   0.454   4.243   4.304
 2985WAT     H2 9063   0.353   4.148   4.244
 2986WAT      O 9064   1.409   4.065   4.420
 2986WAT     H1 9065   1.491   4.016   4.425
 2986WAT     H2 9066   1.412   4.124   4.496
 2987WAT      O 9067   0.209   4.345   4.798
 2987WAT     H1 9068   0.277   4.372   4.860
 2987WAT     H2 9069   0.177   4.261   4.831
 2988WAT      O 9070   0.628   4.450   4.706
 2988WAT     H1 9071   0.679   4.500   4.770
 2988WAT     H2 9072   0.681   4.372   4.689
 2989WAT      O 9073   1.838   4.267   5.077
 2989WAT     H1 9074   1.767   4.306   5.025
 2989WAT     H2 9075   1.864   4.336   5.137
 2990WAT      O 9076   0.456   3.914   5.133
 2990WAT     H1 9077   0.456   3.966   5.053
 2990WAT     H2 9078   0.373   3.866   5.131
 2991WAT      O 9079   1.095   4.925   4.283
 2991WAT     H1 9080   1.033   4.971   4.227
 2991WAT     H2 9081   1.146   4.994   4.325
 2992WAT      O 9082   0.581   4.878   4.951
 2992WAT     H1 9083   0.548   4.940   5.015
 2992WAT     H2 9084   0.599   4.930   4.873
 2993WAT      O 9085   1.432   4.259   4.698
 2993WAT     H1 9086   1.362   4.288   4.756
 2993WAT     H2 9087   1.469   4.340   4.662
 2994WAT      O 9088   0.424   4.085   4.934
 2994WAT     H1 9089   0.458   4.169   4.904
 2994WAT     H2 9090   0.330   4.100   4.945
 2995WAT      O 9091   0.502   5.075   5.132
 2995WAT     H1 9092   0.564   5.142   5.104
 2995WAT     H2 9093   0.416   5.115   5.123
 2996WAT      O 9094   1.594   5.221   4.924
 2996WAT     H1 9095   1.526   5.288   4.923
 2996WAT     H2 9096   1.648   5.241   4.847
 2997WAT      O 9097   1.739   4.204   4.737
 2997WAT     H1 9098   1.645   4.207   4.750
 2997WAT     H2 9099   1.772   4.285   4.775
 2998WAT      O 9100   0.793   3.834   4.566
 2998WAT     H1 9101   0.823   3.778   4.495
 2998WAT     H2 9102   0.700   3.847   4.548
 2999WAT      O 9103   1.477   5.078   4.304
 2999WAT     H1 9104   1.466   4.983   4.317
 2999WAT     H2 9105   1.477   5.114   4.393
 3000WAT      O 9106   1.288   4.896   4.928
 3000WAT     H1 9107   1.329   4.874   4.845
 3000WAT     H2 9108   1.360   4.921   4.985
 3001WAT      O 9109   1.031   4.640   4.240
 3001WAT     H1 9110   0.939   4.634   4.263
 3001WAT     H2 9111   1.047   4.734   4.228
 3002WAT      O 9112   1.030   4.267   3.939
 3002WAT     H1 9113   0.936   4.284   3.948
 3002WAT     H2 9114   1.062   4.339   3.885
 3003WAT      O 9115   1.682   4.736   4.937
 3003WAT     H1 9116   1.599   4.743   4.890
 3003WAT     H2 9117   1.742   4.794   4.890
 3004WAT      O 9118   1.434   4.796   4.290
 3004WAT     H1 9119   1.372   4.763   4.225
 3004WAT     H2 9120   1.433   4.732   4.361
 3005WAT      O 9121   1.379   4.414   5.032
 3005WAT     H1 9122   1.337   4.497   5.057
 3005WAT     H2 9123   1.305   4.356   5.013
 3006WAT      O 9124   0.592   4.693   4.518
 3006WAT     H1 9125   0.551   4.622   4.468
 3006WAT     H2 9126   0.601   4.658   4.607
 3007WAT      O 9127   0.639   5.062   4.734
 3007WAT     H1 9128   0.609   5.001   4.666
 3007WAT     H2 9129   0.734   5.065   4.723
 3008WAT      O 9130   0.463   4.370   4.896
 3008WAT     H1 9131   0.518   4.381   4.819
 3008WAT     H2 9132   0.515   4.408   4.968
 3009WAT      O 9133   0.548   5.035   5.399
 3009WAT     H1 9134   0.458   5.058   5.424
 3009WAT     H2 9135   0.550   5.048   5.305
 3010WAT      O 9136   1.252   4.720   3.991
 3010WAT     H1 9137   1.296   4.637   3.976
 3010WAT     H2 9138   1.323   4.784   4.000
 3011WAT      O 9139   0.431   4.722   5.257
 3011WAT     H1 9140   0.417   4.810   5.294
 3011WAT     H2 9141   0.342   4.688   5.243
 3012WAT      O 9142   1.063   5.214   4.388
 3012WAT     H1 9143   1.107   5.288   4.346
 3012WAT     H2 9144   1.057   5.239   4.480
 3013WAT      O 9145   1.610   3.846   3.822
 3013WAT     H1 9146   1.579   3.855   3.912
 3013WAT     H2 9147   1.686   3.904   3.817
 3014WAT      O 9148   0.262   4.582   4.268
 3014WAT     H1 9149   0.250   4.655   4.207
 3014WAT     H2 9150   0.231   4.505   4.220
 3015WAT      O 9151   1.746   5.114   5.324
 3015WAT     H1 9152   1.759   5.090   5.232
 3015WAT     H2 9153   1.750   5.031   5.371
 3016WAT      O 9154   1.300   5.264   3.979
 3016WAT     H1 9155   1.231   5.264   3.913
 3016WAT     H2 9156   1.374   5.221   3.936
 3017WAT      O 9157   1.731   4.319   5.420
 3017WAT     H1 9158   1.670   4.370   5.367
 3017WAT     H2 9159   1.699   4.229   5.414
 3018WAT      O 9160   0.509   3.917   4.606
 3018WAT     H1 9161   0.464   3.995   4.573
 3018WAT     H2 9162   0.564   3.949   4.677
 3019WAT      O 9163   0.937   4.203   5.167
 3019WAT     H1 9164   0.891   4.224   5.248
 3019WAT     H2 9165   0.897   4.122   5.136
 3020WAT      O 9166   1.437   4.325   5.280
 3020WAT     H1 9167   1.352   4.295   5.312
 3020WAT     H2 9168   1.421   4.350   5.188
 3021WAT      O 9169   0.820   3.879   4.094
 3021WAT     H1 9170   0.758   3.878   4.167
 3021WAT     H2 9171   0.811   3.792   4.055
 3022WAT      O 9172   0.712   3.971   4.792
 3022WAT     H1 9173   0.742   4.062   4.784
 3022WAT     H2 9174   0.767   3.922   4.731
 3023WAT      O 9175   0.488   4.429   4.379
 3023WAT     H1 9176   0.465   4.407   4.470
 3023WAT     H2 9177   0.410   4.472   4.345
 3024WAT      O 9178   1.211   4.430   4.239
 3024WAT     H1 9179   1.151   4.502   4.221
 3024WAT     H2 9180   1.266   4.423   4.161
 3025WAT      O 9181   1.071   4.293   4.442
 3025WAT     H1 9182   1.111   4.325   4.361
 3025WAT     H2 9183   1.108   4.205   4.454
 3026WAT      O 9184   0.245   4.160   5.261
 3026WAT     H1 9185   0.205   4.245   5.282
 3026WAT     H2 9186   0.176   4.096   5.280
 3027WAT      O 9187   1.130   4.552   4.852
 3027WAT     H1 9188   1.057   4.603   4.886
 3027WAT     H2 9189   1.090   4.471   4.821
 3028WAT      O 9190   0.774   4.220   4.692
 3028WAT     H1 9191   0.774   4.176   4.607
 3028WAT     H2 9192   0.863   4.252   4.703
 3029WAT      O 9193   0.359   4.208   4.588
 3029WAT     H1 9194   0.325   4.256   4.664
 3029WAT     H2 9195   0.282   4.163   4.552
 3030WAT      O 9196   0.780   4.320   3.991
 3030WAT     H1 9197   0.792   4.316   4.086
 3030WAT     H2 9198   0.741   4.406   3.976
 3031WAT      O 9199   1.176   4.098   4.793
 3031WAT     H1 9200   1.178   4.143   4.877
 3031WAT     H2 9201   1.151   4.008   4.814
 3032WAT      O 9202   0.681   4.551   3.931
 3032WAT     H1 9203   0.624   4.506   3.868
 3032WAT     H2 9204   0.752   4.587   3.878
 3033WAT      O 9205   0.189   4.941   5.319
 3033WAT     H1 9206   0.150   4.877   5.379
 3033WAT     H2 9207   0.220   5.011   5.376
 3034WAT      O 9208   0.804   4.626   4.867
 3034WAT     H1 9209   0.840   4.578   4.941
 3034WAT     H2 9210   0.785   4.713   4.901
 3035WAT      O 9211   0.583   4.530   5.099
 3035WAT     H1 9212   0.552   4.618   5.121
 3035WAT     H2 9213   0.678   4.536   5.102
 3036WAT      O 9214   0.436   4.951   4.158
 3036WAT     H1 9215   0.358   4.897   4.142
 3036WAT     H2 9216   0.509   4.899   4.124
 3037WAT      O 9217   1.511   4.850   4.738
 3037WAT     H1 9218   1.583   4.900   4.698
 3037WAT     H2 9219   1.491   4.782   4.673
 3038WAT      O 9220   1.058   3.990   4.152
 3038WAT     H1 9221   0.976   3.940   4.144
 3038WAT     H2 9222   1.038   4.074   4.110
 3039WAT      O 9223   1.050   4.857   5.326
 3039WAT     H1 9224   1.043   4.765   5.301
 3039WAT     H2 9225   0.987   4.867   5.398
 3040WAT      O 9226   1.329   4.427   3.981
 3040WAT     H1 9227   1.418   4.458   3.964
 3040WAT     H2 9228   1.326   4.340   3.942
 3041WAT      O 9229   0.440   4.917   4.522
 3041WAT     H1 9230   0.492   4.837   4.517
 3041WAT     H2 9231   0.395   4.911   4.606
 3042WAT      O 9232   0.929   5.044   4.049
 3042WAT     H1 9233   0.963   5.118   4.000
 3042WAT     H2 9234   0.846   5.075   4.086
 3043WAT      O 9235   0.188   4.614   5.213
 3043WAT     H1 9236   0.153   4.681   5.272
 3043WAT     H2 9237   0.159   4.531   5.250
 3044WAT      O 9238   1.043   5.140   5.301
 3044WAT     H1 9239   1.044   5.046   5.279
 3044WAT     H2 9240   0.972   5.148   5.365
 3045WAT      O 9241   1.556   4.558   3.928
 3045WAT     H1 9242   1.548   4.601   3.843
 3045WAT     H2 9243   1.628   4.604   3.972
 3046WAT      O 9244   1.664   4.804   5.236
 3046WAT     H1 9245   1.591   4.863   5.216
 3046WAT     H2 9246   1.717   4.803   5.156
 3047WAT      O 9247   1.659   5.243   4.201
 3047WAT     H1 9248   1.595   5.178   4.229
 3047WAT     H2 9249   1.620   5.284   4.123
 3048WAT      O 9250   1.217   4.976   4.586
 3048WAT     H1 9251   1.252   4.916   4.520
 3048WAT     H2 9252   1.129   4.944   4.603
 3049WAT      O 9253   0.826   5.052   4.326
 3049WAT     H1 9254   0.894   5.107   4.365
 3049WAT     H2 9255   0.747   5.107   4.330
 3050WAT      O 9256   0.756   4.753   4.288
 3050WAT     H1 9257   0.801   4.834   4.310
 3050WAT     H2 9258   0.721   4.721   4.371
 3051WAT      O 9259   0.986   5.304   5.011
 3051WAT     H1 9260   1.051   5.324   5.078
 3051WAT     H2 9261   1.022   5.228   4.965
 3052WAT      O 9262   0.346   3.787   4.335
 3052WAT     H1 9263   0.333   3.786   4.430
 3052WAT     H2 9264   0.264   3.821   4.300
 3053WAT      O 9265   1.113   5.104   4.882
 3053WAT     H1 9266   1.178   5.034   4.894
 3053WAT     H2 9267   1.166   5.182   4.864
 3054WAT      O 9268   1.498   5.133   3.855
 3054WAT     H1 9269   1.475   5.061   3.914
 3054WAT     H2 9270   1.459   5.108   3.771
 3055WAT      O 9271   1.291   5.184   5.203
 3055WAT     H1 9272   1.324   5.243   5.271
 3055WAT     H2 9273   1.199   5.171   5.226
 3056WAT      O 9274   1.456   4.924   4.021
 3056WAT     H1 9275   1.427   4.970   4.100
 3056WAT     H2 9276   1.536   4.878   4.048
 3057WAT      O 9277   0.678   5.274   4.014
 3057WAT     H1 9278   0.677   5.347   3.952
 3057WAT     H2 9279   0.586   5.249   4.023
 3058WAT      O 9280   0.238   4.796   4.088
 3058WAT     H1 9281   0.177   4.870   4.089
 3058WAT     H2 9282   0.285   4.805   4.006
 3059WAT      O 9283   1.195   4.212   5.056
 3059WAT     H1 9284   1.232   4.130   5.089
 3059WAT     H2 9285   1.109   4.218   5.098
 3060WAT      O 9286   1.532   4.108   4.137
 3060WAT     H1 9287   1.469   4.118   4.066
 3060WAT     H2 9288   1.482   4.130   4.216
 3061WAT      O 9289   0.976   5.280   3.880
 3061WAT     H1 9290   0.987   5.259   3.787
 3061WAT     H2 9291   0.886   5.254   3.901
 3062WAT      O 9292   0.729   4.336   4.279
 3062WAT     H1 9293   0.658   4.382   4.323
 3062WAT     H2 9294   0.757   4.270   4.342
 3063WAT      O 9295   0.891   4.478   5.078
 3063WAT     H1 9296   0.941   4.525   5.145
 3063WAT     H2 9297   0.906   4.385   5.099
 3064WAT      O 9298   1.132   4.008   4.422
 3064WAT     H1 9299   1.120   4.010   4.328
 3064WAT     H2 9300   1.227   4.013   4.434
 3065WAT      O 9301   0.549   4.166   4.016
 3065WAT     H1 9302   0.634   4.210   4.009
 3065WAT     H2 9303   0.512   4.198   4.099
 3066WAT      O 9304   1.612   4.099   5.163
 3066WAT     H1 9305   1.562   4.173   5.197
 3066WAT     H2 9306   1.694   4.138   5.131
 3067WAT      O 9307   1.441   4.624   4.507
 3067WAT     H1 9308   1.347   4.625   4.525
 3067WAT     H2 9309   1.473   4.545   4.552
 3068WAT      O 9310   0.439   4.792   3.863
 3068WAT     H1 9311   0.516   4.781   3.920
 3068WAT     H2 9312   0.447   4.722   3.798
 3069WAT      O 9313   0.308   4.535   3.932
 3069WAT     H1 9314   0.317   4.440   3.943
 3069WAT     H2 9315   0.398   4.568   3.942
 3070WAT      O 9316   0.751   4.989   3.811
 3070WAT     H1 9317   0.741   4.928   3.883
 3070WAT     H2 9318   0.735   4.937   3.732
 3071WAT      O 9319   0.767   4.858   5.409
 3071WAT     H1 9320   0.690   4.915   5.400
 3071WAT     H2 9321   0.785   4.829   5.319
 3072WAT      O 9322   1.075   4.896   3.871
 3072WAT     H1 9323   1.021   4.940   3.936
 3072WAT     H2 9324   1.138   4.845   3.924
 3073WAT      O 9325   0.642   4.791   4.061
 3073WAT     H1 9326   0.684   4.775   4.145
 3073WAT     H2 9327   0.655   4.710   4.011
 3074WAT      O 9328   0.458   4.389   5.342
 3074WAT     H1 9329   0.405   4.340   5.279
 3074WAT     H2 9330   0.525   4.432   5.288
 3075WAT      O 9331   0.893   4.694   3.786
 3075WAT     H1 9332   0.946   4.622   3.749
 3075WAT     H2 9333   0.958   4.758   3.816
 3076WAT      O 9334   1.348   4.836   5.318
 3076WAT     H1 9335   1.390   4.852   5.403
 3076WAT     H2 9336   1.255   4.849   5.334
 3077WAT      O 9337   0.507   4.086   5.349
 3077WAT     H1 9338   0.498   4.024   5.277
 3077WAT     H2 9339   0.449   4.159   5.327
 3078WAT      O 9340   0.784   3.942   5.053
 3078WAT     H1 9341   0.739   3.944   4.968
 3078WAT     H2 9342   0.720   3.902   5.112
 3079WAT      O 9343   0.824   4.831   5.115
 3079WAT     H1 9344   0.866   4.916   5.098
 3079WAT     H2 9345   0.732   4.845   5.092
 3080WAT      O 9346   1.058   4.604   5.253
 3080WAT     H1 9347   1.070   4.545   5.327
 3080WAT     H2 9348   1.144   4.608   5.211
 3081WAT      O 9349   1.292   4.660   5.111
 3081WAT     H1 9350   1.239   4.712   5.051
 3081WAT     H2 9351   1.326   4.723   5.174
 3082WAT      O 9352   0.532   4.399   3.755
 3082WAT     H1 9353   0.512   4.312   3.792
 3082WAT     H2 9354   0.515   4.390   3.662
 3083WAT      O 9355   1.280   3.880   4.008
 3083WAT     H1 9356   1.308   3.796   4.044
 3083WAT     H2 9357   1.202   3.903   4.060
 3084WAT      O 9358   0.412   4.109   3.754
 3084WAT     H1 9359   0.442   4.109   3.663
 3084WAT     H2 9360   0.486   4.074   3.804
 3085WAT      O 9361   0.733   4.003   3.853
 3085WAT     H1 9362   0.699   3.935   3.795
 3085WAT     H2 9363   0.754   3.957   3.934
 3086WAT      O 9364   0.314   5.039   3.837
 3086WAT     H1 9365   0.358   5.093   3.903
 3086WAT     H2 9366   0.362   4.957   3.838
 3087WAT      O 9367   0.495   5.151   4.349
 3087WAT     H1 9368   0.465   5.139   4.439
 3087WAT     H2 9369   0.484   5.065   4.308
 3088WAT      O 9370   1.648   5.355   5.285
 3088WAT     H1 9371   1.588   5.361   5.211
 3088WAT     H2 9372   1.661   5.261   5.298
 3089WAT      O 9373   1.772   5.129   3.819
 3089WAT     H1 9374   1.689   5.136   3.866
 3089WAT     H2 9375   1.790   5.218   3.789
 3090WAT      O 9376   1.717   4.804   4.069
 3090WAT     H1 9377   1.794   4.861   4.080
 3090WAT     H2 9378   1.719   4.747   4.146
 3091WAT      O 9379   1.818   4.889   4.554
 3091WAT     H1 9380   1.855   4.811   4.513
 3091WAT     H2 9381   1.882   4.958   4.536
 3092WAT      O 9382   1.516   5.027   5.095
 3092WAT     H1 9383   1.435   5.070   5.121
 3092WAT     H2 9384   1.557   5.089   5.034
 3093WAT      O 9385   1.723   4.833   3.785
 3093WAT     H1 9386   1.750   4.924   3.772
 3093WAT     H2 9387   1.704   4.827   3.879
 3094WAT      O 9388   1.362   4.135   3.915
 3094WAT     H1 9389   1.404   4.117   3.831
 3094WAT     H2 9390   1.332   4.050   3.946
 3095WAT      O 9391   1.712   4.627   4.284
 3095WAT     H1 9392   1.675   4.550   4.241
 3095WAT     H2 9393   1.639   4.665   4.333
 3096WAT      O 9394   1.651   4.541   5.248
 3096WAT     H1 9395   1.628   4.518   5.158
 3096WAT     H2 9396   1.677   4.633   5.243
 3097WAT      O 9397   1.640   4.449   4.614
 3097WAT     H1 9398   1.692   4.400   4.551
 3097WAT     H2 9399   1.698   4.463   4.689
 3098WAT      O 9400   1.658   4.458   4.967
 3098WAT     H1 9401   1.563   4.454   4.978
 3098WAT     H2 9402   1.676   4.549   4.943
 3099WAT      O 9403   0.243   4.283   3.878
 3099WAT     H1 9404   0.314   4.240   3.829
 3099WAT     H2 9405   0.172   4.289   3.814
 3100WAT      O 9406   0.208   3.888   3.782
 3100WAT     H1 9407   0.280   3.942   3.813
 3100WAT     H2 9408   0.235   3.861   3.694
 3101WAT      O 9409   1.589   4.375   4.208
 3101WAT     H1 9410   1.638   4.352   4.287
 3101WAT     H2 9411   1.569   4.291   4.167
 3102WAT      O 9412   0.177   3.813   4.772
 3102WAT     H1 9413   0.242   3.758   4.728
 3102WAT     H2 9414   0.219   3.839   4.854
 3103WAT      O 9415   1.732   4.239   4.462
 3103WAT     H1 9416   1.721   4.223   4.556
 3103WAT     H2 9417   1.808   4.186   4.437
 3104WAT      O 9418   1.566   3.832   5.108
 3104WAT     H1 9419   1.630   3.894   5.144
 3104WAT     H2 9420   1.581   3.836   5.013
 3105WAT      O 9421   1.821   4.022   3.786
 3105WAT     H1 9422   1.913   4.008   3.765
 3105WAT     H2 9423   1.818   4.030   3.881
 3106WAT      O 9424   1.828   4.099   4.048
 3106WAT     H1 9425   1.748   4.092   4.101
 3106WAT     H2 9426   1.848   4.192   4.047
 3107WAT      O 9427   0.683   5.301   5.023
 3107WAT     H1 9428   0.659   5.328   4.934
 3107WAT     H2 9429   0.777   5.318   5.028
 3108WAT      O 9430   1.167   3.913   5.362
 3108WAT     H1 9431   1.229   3.945   5.296
 3108WAT     H2 9432   1.222   3.865   5.424
 3109WAT      O 9433   0.219   3.781   5.374
 3109WAT     H1 9434   0.274   3.763   5.297
 3109WAT     H2 9435   0.226   3.702   5.427
 3110WAT      O 9436   1.241   3.770   4.995
 3110WAT     H1 9437   1.154   3.803   4.975
 3110WAT     H2 9438   1.230   3.723   5.077
 3111WAT      O 9439   1.332   3.990   5.133
 3111WAT     H1 9440   1.299   3.909   5.095
 3111WAT     H2 9441   1.427   3.986   5.121
 3112WAT      O 9442   0.260   5.177   5.070
 3112WAT     H1 9443   0.187   5.115   5.063
 3112WAT     H2 9444   0.266   5.216   4.983
 3113WAT      O 9445   1.016   3.861   4.889
 3113WAT     H1 9446   0.938   3.909   4.917
 3113WAT     H2 9447   0.987   3.771   4.878
 3114WAT      O 9448   1.471   3.932   4.693
 3114WAT     H1 9449   1.515   3.926   4.609
 3114WAT     H2 9450   1.444   4.023   4.700
 3115WAT      O 9451   1.658   3.895   4.494
 3115WAT     H1 9452   1.651   3.800   4.480
 3115WAT     H2 9453   1.735   3.906   4.549
 3116WAT      O 9454   0.805   4.103   4.440
 3116WAT     H1 9455   0.723   4.066   4.406
 3116WAT     H2 9456   0.855   4.028   4.470
 3117WAT      O 9457   1.255   3.770   4.564
 3117WAT     H1 9458   1.315   3.827   4.611
 3117WAT     H2 9459   1.181   3.826   4.542
 3118WAT      O 9460   1.569   3.810   4.091
 3118WAT     H1 9461   1.589   3.900   4.118
 3118WAT     H2 9462   1.490   3.787   4.141
 3119WAT      O 9463   0.388   3.945   3.995
 3119WAT     H1 9464   0.441   3.866   3.982
 3119WAT     H2 9465   0.451   4.012   4.018
 3120WAT      O 9466   0.607   3.918   4.300
 3120WAT     H1 9467   0.544   3.848   4.317
 3120WAT     H2 9468   0.553   3.994   4.279
 3121WAT      O 9469   0.425   5.185   4.023
 3121WAT     H1 9470   0.362   5.231   4.078
 3121WAT     H2 9471   0.436   5.100   4.067
 3122WAT      O 9472   1.170   4.590   2.638
 3122WAT     H1 9473   1.162   4.498   2.611
 3122WAT     H2 9474   1.129   4.639   2.567
 3123WAT      O 9475   0.983   4.767   2.826
 3123WAT     H1 9476   0.906   4.719   2.855
 3123WAT     H2 9477   1.049   4.699   2.809
 3124WAT      O 9478   0.385   4.799   2.914
 3124WAT     H1 9479   0.302   4.773   2.954
 3124WAT     H2 9480   0.446   4.806   2.988
 3125WAT      O 9481   1.386   5.208   2.704
 3125WAT     H1 9482   1.339   5.131   2.737
 3125WAT     H2 9483   1.467   5.211   2.755
 3126WAT      O 9484   0.383   5.202   2.934
 3126WAT     H1 9485   0.413   5.113   2.916
 3126WAT     H2 9486   0.458   5.258   2.911
 3127WAT      O 9487   0.928   5.035   2.827
 3127WAT     H1 9488   0.921   4.941   2.811
 3127WAT     H2 9489   1.004   5.044   2.884
 3128WAT      O 9490   1.031   4.316   2.850
 3128WAT     H1 9491   1.068   4.228   2.838
 3128WAT     H2 9492   1.021   4.349   2.760
 3129WAT      O 9493   0.444   4.153   2.396
 3129WAT     H1 9494   0.454   4.243   2.426
 3129WAT     H2 9495   0.353   4.148   2.367
 3130WAT      O 9496   1.409   4.065   2.543
 3130WAT     H1 9497   1.491   4.016   2.547
 3130WAT     H2 9498   1.412   4.124   2.618
 3131WAT      O 9499   0.209   4.345   2.920
 3131WAT     H1 9500   0.277   4.372   2.982
 3131WAT     H2 9501   0.177   4.261   2.954
 3132WAT      O 9502   0.628   4.450   2.829
 3132WAT     H1 9503   0.679   4.500   2.893
 3132WAT     H2 9504   0.681   4.372   2.811
 3133WAT      O 9505   1.838   4.267   3.199
 3133WAT     H1 9506   1.767   4.306   3.147
 3133WAT     H2 9507   1.864   4.336   3.260
 3134WAT      O 9508   0.456   3.914   3.256
 3134WAT     H1 9509   0.456   3.966   3.175
 3134WAT     H2 9510   0.373   3.866   3.253
 3135WAT      O 9511   1.095   4.925   2.406
 3135WAT     H1 9512   1.033   4.971   2.349
 3135WAT     H2 9513   1.146   4.994   2.447
 3136WAT      O 9514   0.581   4.878   3.073
 3136WAT     H1 9515   0.548   4.940   3.138
 3136WAT     H2 9516   0.599   4.930   2.995
 3137WAT      O 9517   1.432   4.259   2.820
 3137WAT     H1 9518   1.362   4.288   2.878
 3137WAT     H2 9519   1.469   4.340   2.784
 3138WAT      O 9520   0.424   4.085   3.056
 3138WAT     H1 9521   0.458   4.169   3.027
 3138WAT     H2 9522   0.330   4.100   3.068
 3139WAT      O 9523   0.502   5.075   3.255
 3139WAT     H1 9524   0.564   5.142   3.227
 3139WAT     H2 9525   0.416   5.115   3.246
 3140WAT      O 9526   1.594   5.221   3.046
 3140WAT     H1 9527   1.526   5.288   3.046
 3140WAT     H2 9528   1.648   5.241   2.970
 3141WAT      O 9529   1.739   4.204   2.859
 3141WAT     H1 9530   1.645   4.207   2.872
 3141WAT     H2 9531   1.772   4.285   2.898
 3142WAT      O 9532   0.793   3.834   2.689
 3142WAT     H1 9533   0.823   3.778   2.617
 3142WAT     H2 9534   0.700   3.847   2.671
 3143WAT      O 9535   1.477   5.078   2.427
 3143WAT     H1 9536   1.466   4.983   2.439
 3143WAT     H2 9537   1.477   5.114   2.515
 3144WAT      O 9538   1.288   4.896   3.051
 3144WAT     H1 9539   1.329   4.874   2.967
 3144WAT     H2 9540   1.360   4.921   3.108
 3145WAT      O 9541   1.031   4.640   2.362
 3145WAT     H1 9542   0.939   4.634   2.385
 3145WAT     H2 9543   1.047   4.734   2.351
 3146WAT      O 9544   1.030   4.267   2.062
 3146WAT     H1 9545   0.936   4.284   2.071
 3146WAT     H2 9546   1.062   4.339   2.007
 3147WAT      O 9547   1.682   4.736   3.060
 3147WAT     H1 9548   1.599   4.743   3.012
 3147WAT     H2 9549   1.742   4.794   3.013
 3148WAT      O 9550   1.434   4.796   2.413
 3148WAT     H1 9551   1.372   4.763   2.348
 3148WAT     H2 9552   1.433   4.732   2.484
 3149WAT      O 9553   1.379   4.414   3.154
 3149WAT     H1 9554   1.337   4.497   3.180
 3149WAT     H2 9555   1.305   4.356   3.135
 3150WAT      O 9556   0.592   4.693   2.641
 3150WAT     H1 9557   0.551   4.622   2.591
 3150WAT     H2 9558   0.601   4.658   2.729
 3151WAT      O 9559   0.639   5.062   2.857
 3151WAT     H1 9560   0.609   5.001   2.789
 3151WAT     H2 9561   0.734   5.065   2.846
 3152WAT      O 9562   0.463   4.370   3.019
 3152WAT     H1 9563   0.518   4.381   2.941
 3152WAT     H2 9564   0.515   4.408   3.090
 3153WAT      O 9565   0.548   5.035   3.522
 3153WAT     H1 9566   0.458   5.058   3.547
 3153WAT     H2 9567   0.550   5.048   3.427
 3154WAT      O 9568   1.252   4.720   2.113
 3154WAT     H1 9569   1.296   4.637   2.099
 3154WAT     H2 9570   1.323   4.784   2.122
 3155WAT      O 9571   0.431   4.722   3.380
 3155WAT     H1 9572   0.417   4.810   3.417
 3155WAT     H2 9573   0.342   4.688   3.365
 3156WAT      O 9574   1.063   5.214   2.510
 3156WAT     H1 9575   1.107   5.288   2.469
 3156WAT     H2 9576   1.057   5.239   2.603
 3157WAT      O 9577   0.610   5.317   3.600
 3157WAT     H1 9578   0.608   5.357   3.514
 3157WAT     H2 9579   0.594   5.224   3.584
 3158WAT      O 9580   1.610   3.846   1.945
 3158WAT     H1 9581   1.579   3.855   2.035
 3158WAT     H2 9582   1.686   3.904   1.940
 3159WAT      O 9583   0.262   4.582   2.391
 3159WAT     H1 9584   0.250   4.655   2.329
 3159WAT     H2 9585   0.231   4.505   2.343
 3160WAT      O 9586   1.746   5.114   3.446
 3160WAT     H1 9587   1.759   5.090   3.354
 3160WAT     H2 9588   1.750   5.031   3.493
 3161WAT      O 9589   1.300   5.264   2.102
 3161WAT     H1 9590   1.231   5.264   2.036
 3161WAT     H2 9591   1.374   5.221   2.059
 3162WAT      O 9592   1.731   4.319   3.543
 3162WAT     H1 9593   1.670   4.370   3.490
 3162WAT     H2 9594   1.699   4.229   3.537
 3163WAT      O 9595   0.509   3.917   2.729
 3163WAT     H1 9596   0.464   3.995   2.696
 3163WAT     H2 9597   0.564   3.949   2.800
 3164WAT      O 9598   0.937   4.203   3.289
 3164WAT     H1 9599   0.891   4.224   3.370
 3164WAT     H2 9600   0.897   4.122   3.259
 3165WAT      O 9601   1.437   4.325   3.402
 3165WAT     H1 9602   1.352   4.295   3.434
 3165WAT     H2 9603   1.421   4.350   3.311
 3166WAT      O 9604   1.147   4.475   3.612
 3166WAT     H1 9605   1.179   4.392   3.578
 3166WAT     H2 9606   1.226   4.528   3.627
 3167WAT      O 9607   0.820   3.879   2.217
 3167WAT     H1 9608   0.758   3.878   2.289
 3167WAT     H2 9609   0.811   3.792   2.177
 3168WAT      O 9610   0.712   3.971   2.915
 3168WAT     H1 9611   0.742   4.062   2.907
 3168WAT     H2 9612   0.767   3.922   2.853
 3169WAT      O 9613   0.488   4.429   2.502
 3169WAT     H1 9614   0.465   4.407   2.592
 3169WAT     H2 9615   0.410   4.472   2.467
 3170WAT      O 9616   1.211   4.430   2.362
 3170WAT     H1 9617   1.151   4.502   2.343
 3170WAT     H2 9618   1.266   4.423   2.283
 3171WAT      O 9619   0.732   4.519   3.568
 3171WAT     H1 9620   0.722   4.425   3.553
 3171WAT     H2 9621   0.816   4.541   3.529
 3172WAT      O 9622   1.071   4.293   2.565
 3172WAT     H1 9623   1.111   4.325   2.483
 3172WAT     H2 9624   1.108   4.205   2.576
 3173WAT      O 9625   0.245   4.160   3.384
 3173WAT     H1 9626   0.205   4.245   3.404
 3173WAT     H2 9627   0.176   4.096   3.403
 3174WAT      O 9628   0.902   4.168   3.691
 3174WAT     H1 9629   0.833   4.149   3.754
 3174WAT     H2 9630   0.977   4.197   3.744
 3175WAT      O 9631   1.130   4.552   2.974
 3175WAT     H1 9632   1.057   4.603   3.009
 3175WAT     H2 9633   1.090   4.471   2.944
 3176WAT      O 9634   0.774   4.220   2.815
 3176WAT     H1 9635   0.774   4.176   2.730
 3176WAT     H2 9636   0.863   4.252   2.825
 3177WAT      O 9637   0.359   4.208   2.711
 3177WAT     H1 9638   0.325   4.256   2.786
 3177WAT     H2 9639   0.282   4.163   2.675
 3178WAT      O 9640   0.780   4.320   2.114
 3178WAT     H1 9641   0.792   4.316   2.209
 3178WAT     H2 9642   0.741   4.406   2.098
 3179WAT      O 9643   1.176   4.098   2.915
 3179WAT     H1 9644   1.178   4.143   3.000
 3179WAT     H2 9645   1.151   4.008   2.937
 3180WAT      O 9646   0.681   4.551   2.054
 3180WAT     H1 9647   0.624   4.506   1.991
 3180WAT     H2 9648   0.752   4.587   2.000
 3181WAT      O 9649   1.519   3.839   3.499
 3181WAT     H1 9650   1.551   3.766   3.552
 3181WAT     H2 9651   1.522   3.807   3.409
 3182WAT      O 9652   0.189   4.941   3.441
 3182WAT     H1 9653   0.150   4.877   3.501
 3182WAT     H2 9654   0.220   5.011   3.498
 3183WAT      O 9655   0.804   4.626   2.989
 3183WAT     H1 9656   0.840   4.578   3.064
 3183WAT     H2 9657   0.785   4.713   3.023
 3184WAT      O 9658   0.583   4.530   3.221
 3184WAT     H1 9659   0.552   4.618   3.244
 3184WAT     H2 9660   0.678   4.536   3.225
 3185WAT      O 9661   0.436   4.951   2.281
 3185WAT     H1 9662   0.358   4.897   2.265
 3185WAT     H2 9663   0.509   4.899   2.247
 3186WAT      O 9664   1.511   4.850   2.860
 3186WAT     H1 9665   1.583   4.900   2.821
 3186WAT     H2 9666   1.491   4.782   2.796
 3187WAT      O 9667   1.058   3.990   2.274
 3187WAT     H1 9668   0.976   3.940   2.267
 3187WAT     H2 9669   1.038   4.074   2.233
 3188WAT      O 9670   1.050   4.857   3.449
 3188WAT     H1 9671   1.043   4.765   3.423
 3188WAT     H2 9672   0.987   4.867   3.520
 3189WAT      O 9673   1.329   4.427   2.104
 3189WAT     H1 9674   1.418   4.458   2.087
 3189WAT     H2 9675   1.326   4.340   2.065
 3190WAT      O 9676   0.440   4.917   2.645
 3190WAT     H1 9677   0.492   4.837   2.639
 3190WAT     H2 9678   0.395   4.911   2.729
 3191WAT      O 9679   0.929   5.044   2.172
 3191WAT     H1 9680   0.963   5.118   2.122
 3191WAT     H2 9681   0.846   5.075   2.208
 3192WAT      O 9682   0.188   4.614   3.336
 3192WAT     H1 9683   0.153   4.681   3.395
 3192WAT     H2 9684   0.159   4.531   3.373
 3193WAT      O 9685   0.509   4.660   3.624
 3193WAT     H1 9686   0.479   4.674   3.535
 3193WAT     H2 9687   0.586   4.604   3.615
 3194WAT      O 9688   1.043   5.140   3.424
 3194WAT     H1 9689   1.044   5.046   3.402
 3194WAT     H2 9690   0.972   5.148   3.488
 3195WAT      O 9691   1.556   4.558   2.051
 3195WAT     H1 9692   1.548   4.601   1.966
 3195WAT     H2 9693   1.628   4.604   2.094
 3196WAT      O 9694   1.664   4.804   3.359
 3196WAT     H1 9695   1.591   4.863   3.339
 3196WAT     H2 9696   1.717   4.803   3.279
 3197WAT      O 9697   1.659   5.243   2.324
 3197WAT     H1 9698   1.595   5.178   2.351
 3197WAT     H2 9699   1.620   5.284   2.246
 3198WAT      O 9700   1.217   4.976   2.708
 3198WAT     H1 9701   1.252   4.916   2.642
 3198WAT     H2 9702   1.129   4.944   2.725
 3199WAT      O 9703   0.826   5.052   2.449
 3199WAT     H1 9704   0.894   5.107   2.487
 3199WAT     H2 9705   0.747   5.107   2.453
 3200WAT      O 9706   0.756   4.753   2.410
 3200WAT     H1 9707   0.801   4.834   2.433
 3200WAT     H2 9708   0.721   4.721   2.493
 3201WAT      O 9709   0.986   5.304   3.133
 3201WAT     H1 9710   1.051   5.324   3.201
 3201WAT     H2 9711   1.022   5.228   3.088
 3202WAT      O 9712   0.346   3.787   2.458
 3202WAT     H1 9713   0.333   3.786   2.552
 3202WAT     H2 9714   0.264   3.821   2.422
 3203WAT      O 9715   1.113   5.104   3.005
 3203WAT     H1 9716   1.178   5.034   3.016
 3203WAT     H2 9717   1.166   5.182   2.987
 3204WAT      O 9718   1.498   5.133   1.977
 3204WAT     H1 9719   1.475   5.061   2.037
 3204WAT     H2 9720   1.459   5.108   1.894
 3205WAT      O 9721   1.291   5.184   3.325
 3205WAT     H1 9722   1.324   5.243   3.393
 3205WAT     H2 9723   1.199   5.171   3.348
 3206WAT      O 9724   1.456   4.924   2.144
 3206WAT     H1 9725   1.427   4.970   2.222
 3206WAT     H2 9726   1.536   4.878   2.170
 3207WAT      O 9727   0.874   5.189   3.642
 3207WAT     H1 9728   0.842   5.117   3.697
 3207WAT     H2 9729   0.806   5.256   3.650
 3208WAT      O 9730   0.678   5.274   2.137
 3208WAT     H1 9731   0.677   5.347   2.075
 3208WAT     H2 9732   0.586   5.249   2.146
 3209WAT      O 9733   0.238   4.796   2.211
 3209WAT     H1 9734   0.177   4.870   2.212
 3209WAT     H2 9735   0.285   4.805   2.128
 3210WAT      O 9736   1.195   4.212   3.179
 3210WAT     H1 9737   1.232   4.130   3.211
 3210WAT     H2 9738   1.109   4.218   3.220
 3211WAT      O 9739   1.532   4.108   2.259
 3211WAT     H1 9740   1.469   4.118   2.188
 3211WAT     H2 9741   1.482   4.130   2.338
 3212WAT      O 9742   0.976   5.280   2.003
 3212WAT     H1 9743   0.987   5.259   1.910
 3212WAT     H2 9744   0.886   5.254   2.023
 3213WAT      O 9745   0.729   4.336   2.401
 3213WAT     H1 9746   0.658   4.382   2.445
 3213WAT     H2 9747   0.757   4.270   2.465
 3214WAT      O 9748   0.891   4.478   3.201
 3214WAT     H1 9749   0.941   4.525   3.268
 3214WAT     H2 9750   0.906   4.385   3.222
 3215WAT      O 9751   1.132   4.008   2.545
 3215WAT     H1 9752   1.120   4.010   2.450
 3215WAT     H2 9753   1.227   4.013   2.557
 3216WAT      O 9754   0.549   4.166   2.139
 3216WAT     H1 9755   0.634   4.210   2.132
 3216WAT     H2 9756   0.512   4.198   2.221
 3217WAT      O 9757   1.612   4.099   3.285
 3217WAT     H1 9758   1.562   4.173   3.319
 3217WAT     H2 9759   1.694   4.138   3.254
 3218WAT      O 9760   1.441   4.624   2.630
 3218WAT     H1 9761   1.347   4.625   2.647
 3218WAT     H2 9762   1.473   4.545   2.674
 3219WAT      O 9763   0.439   4.792   1.986
 3219WAT     H1 9764   0.516   4.781   2.042
 3219WAT     H2 9765   0.447   4.722   1.921
 3220WAT      O 9766   0.308   4.535   2.054
 3220WAT     H1 9767   0.317   4.440   2.065
 3220WAT     H2 9768   0.398   4.568   2.065
 3221WAT      O 9769   1.173   5.079   3.678
 3221WAT     H1 9770   1.112   5.082   3.604
 3221WAT     H2 9771   1.142   5.006   3.732
 3222WAT      O 9772   0.751   4.989   1.933
 3222WAT     H1 9773   0.741   4.928   2.006
 3222WAT     H2 9774   0.735   4.937   1.855
 3223WAT      O 9775   0.767   4.858   3.531
 3223WAT     H1 9776   0.690   4.915   3.523
 3223WAT     H2 9777   0.785   4.829   3.442
 3224WAT      O 9778   1.075   4.896   1.994
 3224WAT     H1 9779   1.021   4.940   2.058
 3224WAT     H2 9780   1.138   4.845   2.046
 3225WAT      O 9781   1.481   5.031   3.587
 3225WAT     H1 9782   1.555   5.065   3.537
 3225WAT     H2 9783   1.405   5.048   3.532
 3226WAT      O 9784   0.264   4.531   3.667
 3226WAT     H1 9785   0.268   4.502   3.758
 3226WAT     H2 9786   0.350   4.572   3.651
 3227WAT      O 9787   0.642   4.791   2.183
 3227WAT     H1 9788   0.684   4.775   2.268
 3227WAT     H2 9789   0.655   4.710   2.134
 3228WAT      O 9790   0.458   4.389   3.464
 3228WAT     H1 9791   0.405   4.340   3.401
 3228WAT     H2 9792   0.525   4.432   3.411
 3229WAT      O 9793   0.893   4.694   1.908
 3229WAT     H1 9794   0.946   4.622   1.872
 3229WAT     H2 9795   0.958   4.758   1.938
 3230WAT      O 9796   1.348   4.836   3.440
 3230WAT     H1 9797   1.390   4.852   3.525
 3230WAT     H2 9798   1.255   4.849   3.457
 3231WAT      O 9799   1.395   4.570   3.641
 3231WAT     H1 9800   1.454   4.495   3.632
 3231WAT     H2 9801   1.413   4.623   3.563
 3232WAT      O 9802   0.507   4.086   3.472
 3232WAT     H1 9803   0.498   4.024   3.400
 3232WAT     H2 9804   0.449   4.159   3.449
 3233WAT      O 9805   0.784   3.942   3.175
 3233WAT     H1 9806   0.739   3.944   3.091
 3233WAT     H2 9807   0.720   3.902   3.235
 3234WAT      O 9808   0.824   4.831   3.237
 3234WAT     H1 9809   0.866   4.916   3.220
 3234WAT     H2 9810   0.732   4.845   3.215
 3235WAT      O 9811   1.058   4.604   3.376
 3235WAT     H1 9812   1.070   4.545   3.450
 3235WAT     H2 9813   1.144   4.608   3.334
 3236WAT      O 9814   1.292   4.660   3.233
 3236WAT     H1 9815   1.239   4.712   3.173
 3236WAT     H2 9816   1.326   4.723   3.297
 3237WAT      O 9817   0.532   4.399   1.878
 3237WAT     H1 9818   0.512   4.312   1.914
 3237WAT     H2 9819   0.515   4.390   1.784
 3238WAT      O 9820   0.735   4.259   3.502
 3238WAT     H1 9821   0.794   4.228   3.570
 3238WAT     H2 9822   0.653   4.211   3.517
 3239WAT      O 9823   1.217   4.220   3.525
 3239WAT     H1 9824   1.148   4.154   3.518
 3239WAT     H2 9825   1.289   4.176   3.569
 3240WAT      O 9826   1.280   3.880   2.131
 3240WAT     H1 9827   1.308   3.796   2.166
 3240WAT     H2 9828   1.202   3.903   2.182
 3241WAT      O 9829   0.412   4.109   1.877
 3241WAT     H1 9830   0.442   4.109   1.786
 3241WAT     H2 9831   0.486   4.074   1.926
 3242WAT      O 9832   0.733   4.003   1.975
 3242WAT     H1 9833   0.699   3.935   1.917
 3242WAT     H2 9834   0.754   3.957   2.057
 3243WAT      O 9835   0.314   5.039   1.960
 3243WAT     H1 9836   0.358   5.093   2.026
 3243WAT     H2 9837   0.362   4.957   1.961
 3244WAT      O 9838   0.495   5.151   2.471
 3244WAT     H1 9839   0.465   5.139   2.561
 3244WAT     H2 9840   0.484   5.065   2.430
 3245WAT      O 9841   1.648   5.355   3.408
 3245WAT     H1 9842   1.588   5.361   3.333
 3245WAT     H2 9843   1.661   5.261   3.421
 3246WAT      O 9844   1.772   5.129   1.942
 3246WAT     H1 9845   1.689   5.136   1.989
 3246WAT     H2 9846   1.790   5.218   1.911
 3247WAT      O 9847   1.717   4.804   2.192
 3247WAT     H1 9848   1.794   4.861   2.202
 3247WAT     H2 9849   1.719   4.747   2.269
 3248WAT      O 9850   1.818   4.889   2.676
 3248WAT     H1 9851   1.855   4.811   2.636
 3248WAT     H2 9852   1.882   4.958   2.658
 3249WAT      O 9853   1.516   5.027   3.218
 3249WAT     H1 9854   1.435   5.070   3.244
 3249WAT     H2 9855   1.557   5.089   3.156
 3250WAT      O 9856   1.723   4.833   1.908
 3250WAT     H1 9857   1.750   4.924   1.895
 3250WAT     H2 9858   1.704   4.827   2.001
 3251WAT      O 9859   1.362   4.135   2.037
 3251WAT     H1 9860   1.404   4.117   1.953
 3251WAT     H2 9861   1.332   4.050   2.068
 3252WAT      O 9862   1.712   4.627   2.407
 3252WAT     H1 9863   1.675   4.550   2.364
 3252WAT     H2 9864   1.639   4.665   2.456
 3253WAT      O 9865   1.651   4.541   3.370
 3253WAT     H1 9866   1.628   4.518   3.280
 3253WAT     H2 9867   1.677   4.633   3.366
 3254WAT      O 9868   1.495   4.064   3.648
 3254WAT     H1 9869   1.583   4.065   3.686
 3254WAT     H2 9870   1.496   3.990   3.587
 3255WAT      O 9871   1.640   4.449   2.737
 3255WAT     H1 9872   1.692   4.400   2.674
 3255WAT     H2 9873   1.698   4.463   2.811
 3256WAT      O 9874   1.658   4.458   3.089
 3256WAT     H1 9875   1.563   4.454   3.101
 3256WAT     H2 9876   1.676   4.549   3.066
 3257WAT      O 9877   0.243   4.283   2.000
 3257WAT     H1 9878   0.314   4.240   1.952
 3257WAT     H2 9879   0.172   4.289   1.937
 3258WAT      O 9880   0.208   3.888   1.904
 3258WAT     H1 9881   0.280   3.942   1.936
 3258WAT     H2 9882   0.235   3.861   1.817
 3259WAT      O 9883   1.589   4.375   2.331
 3259WAT     H1 9884   1.638   4.352   2.409
 3259WAT     H2 9885   1.569   4.291   2.289
 3260WAT      O 9886   0.177   3.813   2.894
 3260WAT     H1 9887   0.242   3.758   2.850
 3260WAT     H2 9888   0.219   3.839   2.977
 3261WAT      O 9889   1.732   4.239   2.584
 3261WAT     H1 9890   1.721   4.223   2.678
 3261WAT     H2 9891   1.808   4.186   2.560
 3262WAT      O 9892   1.566   3.832   3.230
 3262WAT     H1 9893   1.630   3.894   3.267
 3262WAT     H2 9894   1.581   3.836   3.136
 3263WAT      O 9895   1.821   4.022   1.908
 3263WAT     H1 9896   1.913   4.008   1.887
 3263WAT     H2 9897   1.818   4.030   2.004
 3264WAT      O 9898   1.828   4.099   2.171
 3264WAT     H1 9899   1.748   4.092   2.224
 3264WAT     H2 9900   1.848   4.192   2.170
 3265WAT      O 9901   0.313   5.146   3.585
 3265WAT     H1 9902   0.308   5.109   3.673
 3265WAT     H2 9903   0.326   5.240   3.599
 3266WAT      O 9904   0.683   5.301   3.145
 3266WAT     H1 9905   0.659   5.328   3.057
 3266WAT     H2 9906   0.777   5.318   3.151
 3267WAT      O 9907   0.903   3.948   3.521
 3267WAT     H1 9908   0.897   4.007   3.596
 3267WAT     H2 9909   0.997   3.937   3.506
 3268WAT      O 9910   1.167   3.913   3.485
 3268WAT     H1 9911   1.229   3.945   3.419
 3268WAT     H2 9912   1.222   3.865   3.547
 3269WAT      O 9913   0.219   3.781   3.496
 3269WAT     H1 9914   0.274   3.763   3.420
 3269WAT     H2 9915   0.226   3.702   3.550
 3270WAT      O 9916   1.241   3.770   3.117
 3270WAT     H1 9917   1.154   3.803   3.097
 3270WAT     H2 9918   1.230   3.723   3.200
 3271WAT      O 9919   1.332   3.990   3.256
 3271WAT     H1 9920   1.299   3.909   3.218
 3271WAT     H2 9921   1.427   3.986   3.244
 3272WAT      O 9922   0.260   5.177   3.192
 3272WAT     H1 9923   0.187   5.115   3.185
 3272WAT     H2 9924   0.266   5.216   3.105
 3273WAT      O 9925   1.016   3.861   3.011
 3273WAT     H1 9926   0.938   3.909   3.039
 3273WAT     H2 9927   0.987   3.771   3.001
 3274WAT      O 9928   1.471   3.932   2.816
 3274WAT     H1 9929   1.515   3.926   2.731
 3274WAT     H2 9930   1.444   4.023   2.823
 3275WAT      O 9931   1.658   3.895   2.617
 3275WAT     H1 9932   1.651   3.800   2.602
 3275WAT     H2 9933   1.735   3.906   2.671
 3276WAT      O 9934   0.805   4.103   2.563
 3276WAT     H1 9935   0.723   4.066   2.528
 3276WAT     H2 9936   0.855   4.028   2.593
 3277WAT      O 9937   1.255   3.770   2.686
 3277WAT     H1 9938   1.315   3.827   2.734
 3277WAT     H2 9939   1.181   3.826   2.664
 3278WAT      O 9940   1.569   3.810   2.214
 3278WAT     H1 9941   1.589   3.900   2.240
 3278WAT     H2 9942   1.490   3.787   2.263
 3279WAT      O 9943   0.388   3.945   2.118
 3279WAT     H1 9944   0.441   3.866   2.105
 3279WAT     H2 9945   0.451   4.012   2.141
 3280WAT      O 9946   0.607   3.918   2.423
 3280WAT     H1 9947   0.544   3.848   2.440
 3280WAT     H2 9948   0.553   3.994   2.401
 3281WAT      O 9949   0.620   3.846   3.667
 3281WAT     H1 9950   0.591   3.897   3.590
 3281WAT     H2 9951   0.658   3.766   3.630
 3282WAT      O 9952   0.425   5.185   2.146
 3282WAT     H1 9953   0.362   5.231   2.201
 3282WAT     H2 9954   0.436   5.100   2.189
 3283WAT      O 9955   1.280   3.788   3.724
 3283WAT     H1 9956   1.268   3.820   3.814
 3283WAT     H2 9957   1.361   3.828   3.695
 3284WAT      O 9958   1.170   4.590   0.761
 3284WAT     H1 9959   1.162   4.498   0.734
 3284WAT     H2 9960   1.129   4.639   0.690
 3285WAT      O 9961   0.983   4.767   0.949
 3285WAT     H1 9962   0.906   4.719   0.978
 3285WAT     H2 9963   1.049   4.699   0.931
 3286WAT      O 9964   0.385   4.799   1.037
 3286WAT     H1 9965   0.302   4.773   1.076
 3286WAT     H2 9966   0.446   4.806   1.110
 3287WAT      O 9967   1.386   5.208   0.827
 3287WAT     H1 9968   1.339   5.131   0.860
 3287WAT     H2 9969   1.467   5.211   0.877
 3288WAT      O 9970   0.383   5.202   1.056
 3288WAT     H1 9971   0.413   5.113   1.038
 3288WAT     H2 9972   0.458   5.258   1.033
 3289WAT      O 9973   0.928   5.035   0.949
 3289WAT     H1 9974   0.921   4.941   0.933
 3289WAT     H2 9975   1.004   5.044   1.007
 3290WAT      O 9976   1.031   4.316   0.972
 3290WAT     H1 9977   1.068   4.228   0.961
 3290WAT     H2 9978   1.021   4.349   0.883
 3291WAT      O 9979   0.444   4.153   0.518
 3291WAT     H1 9980   0.454   4.243   0.549
 3291WAT     H2 9981   0.353   4.148   0.489
 3292WAT      O 9982   1.409   4.065   0.665
 3292WAT     H1 9983   1.491   4.016   0.670
 3292WAT     H2 9984   1.412   4.124   0.741
 3293WAT      O 9985   0.209   4.345   1.043
 3293WAT     H1 9986   0.277   4.372   1.105
 3293WAT     H2 9987   0.177   4.261   1.076
 3294WAT      O 9988   0.628   4.450   0.952
 3294WAT     H1 9989   0.679   4.500   1.016
 3294WAT     H2 9990   0.681   4.372   0.934
 3295WAT      O 9991   1.838   4.267   1.322
 3295WAT     H1 9992   1.767   4.306   1.270
 3295WAT     H2 9993   1.864   4.336   1.382
 3296WAT      O 9994   0.456   3.914   1.378
 3296WAT     H1 9995   0.456   3.966   1.298
 3296WAT     H2 9996   0.373   3.866   1.376
 3297WAT      O 9997   1.095   4.925   0.528
 3297WAT     H1 9998   1.033   4.971   0.472
 3297WAT     H2 9999   1.146   4.994   0.570
 3298WAT      O10000   0.581   4.878   1.196
 3298WAT     H110001   0.548   4.940   1.260
 3298WAT     H210002   0.599   4.930   1.118
 3299WAT      O10003   1.432   4.259   0.943
 3299WAT     H110004   1.362   4.288   1.001
 3299WAT     H210005   1.469   4.340   0.907
 3300WAT      O10006   0.424   4.085   1.179
 3300WAT     H110007   0.458   4.169   1.149
 3300WAT     H210008   0.330   4.100   1.191
 3301WAT      O10009   0.502   5.075   1.377
 3301WAT     H110010   0.564   5.142   1.349
 3301WAT     H210011   0.416   5.115   1.368
 3302WAT      O10012   1.594   5.221   1.169
 3302WAT     H110013   1.526   5.288   1.168
 3302WAT     H210014   1.648   5.241   1.092
 3303WAT      O10015   1.739   4.204   0.982
 3303WAT     H110016   1.645   4.207   0.995
 3303WAT     H210017   1.772   4.285   1.020
 3304WAT      O10018   0.793   3.834   0.811
 3304WAT     H110019   0.823   3.778   0.740
 3304WAT     H210020   0.700   3.847   0.793
 3305WAT      O10021   1.477   5.078   0.549
 3305WAT     H110022   1.466   4.983   0.562
 3305WAT     H210023   1.477   5.114   0.638
 3306WAT      O10024   1.288   4.896   1.173
 3306WAT     H110025   1.329   4.874   1.090
 3306WAT     H210026   1.360   4.921   1.230
 3307WAT      O10027   1.031   4.640   0.485
 3307WAT     H110028   0.939   4.634   0.508
 3307WAT     H210029   1.047   4.734   0.474
 3308WAT      O10030   1.682   4.736   1.182
 3308WAT     H110031   1.599   4.743   1.135
 3308WAT     H210032   1.742   4.794   1.136
 3309WAT      O10033   1.434   4.796   0.535
 3309WAT     H110034   1.372   4.763   0.471
 3309WAT     H210035   1.433   4.732   0.606
 3310WAT      O10036   1.379   4.414   1.277
 3310WAT     H110037   1.337   4.497   1.302
 3310WAT     H210038   1.305   4.356   1.258
 3311WAT      O10039   0.592   4.693   0.763
 3311WAT     H110040   0.551   4.622   0.714
 3311WAT     H210041   0.601   4.658   0.852
 3312WAT      O10042   0.639   5.062   0.980
 3312WAT     H110043   0.609   5.001   0.912
 3312WAT     H210044   0.734   5.065   0.968
 3313WAT      O10045   0.463   4.370   1.141
 3313WAT     H110046   0.518   4.381   1.064
 3313WAT     H210047   0.515   4.408   1.213
 3314WAT      O10048   0.548   5.035   1.645
 3314WAT     H110049   0.458   5.058   1.669
 3314WAT     H210050   0.550   5.048   1.550
 3315WAT      O10051   1.252   4.720   0.236
 3315WAT     H110052   1.296   4.637   0.221
 3315WAT     H210053   1.323   4.784   0.245
 3316WAT      O10054   0.431   4.722   1.502
 3316WAT     H110055   0.417   4.810   1.539
 3316WAT     H210056   0.342   4.688   1.488
 3317WAT      O10057   1.063   5.214   0.633
 3317WAT     H110058   1.107   5.288   0.591
 3317WAT     H210059   1.057   5.239   0.725
 3318WAT      O10060   0.610   5.317   1.723
 3318WAT     H110061   0.608   5.357   1.636
 3318WAT     H210062   0.594   5.224   1.707
 3319WAT      O10063   0.262   4.582   0.513
 3319WAT     H110064   0.250   4.655   0.452
 3319WAT     H210065   0.231   4.505   0.465
 3320WAT      O10066   1.746   5.114   1.569
 3320WAT     H110067   1.759   5.090   1.477
 3320WAT     H210068   1.750   5.031   1.616
 3321WAT      O10069   1.731   4.319   1.665
 3321WAT     H110070   1.670   4.370   1.612
 3321WAT     H210071   1.699   4.229   1.659
 3322WAT      O10072   0.509   3.917   0.851
 3322WAT     H110073   0.464   3.995   0.818
 3322WAT     H210074   0.564   3.949   0.922
 3323WAT      O10075   0.937   4.203   1.412
 3323WAT     H110076   0.891   4.224   1.493
 3323WAT     H210077   0.897   4.122   1.382
 3324WAT      O10078   1.437   4.325   1.525
 3324WAT     H110079   1.352   4.295   1.557
 3324WAT     H210080   1.421   4.350   1.434
 3325WAT      O10081   1.147   4.475   1.735
 3325WAT     H110082   1.179   4.392   1.701
 3325WAT     H210083   1.226   4.528   1.750
 3326WAT      O10084   0.820   3.879   0.340
 3326WAT     H110085   0.758   3.878   0.412
 3326WAT     H210086   0.811   3.792   0.300
 3327WAT      O10087   0.712   3.971   1.037
 3327WAT     H110088   0.742   4.062   1.029
 3327WAT     H210089   0.767   3.922   0.976
 3328WAT      O10090   0.488   4.429   0.624
 3328WAT     H110091   0.465   4.407   0.715
 3328WAT     H210092   0.410   4.472   0.590
 3329WAT      O10093   1.211   4.430   0.484
 3329WAT     H110094   1.151   4.502   0.466
 3329WAT     H210095   1.266   4.423   0.406
 3330WAT      O10096   0.732   4.519   1.691
 3330WAT     H110097   0.722   4.425   1.676
 3330WAT     H210098   0.816   4.541   1.651
 3331WAT      O10099   1.071   4.293   0.687
 3331WAT     H110100   1.111   4.325   0.606
 3331WAT     H210101   1.108   4.205   0.699
 3332WAT      O10102   0.245   4.160   1.506
 3332WAT     H110103   0.205   4.245   1.527
 3332WAT     H210104   0.176   4.096   1.525
 3333WAT      O10105   0.902   4.168   1.813
 3333WAT     H110106   0.833   4.149   1.877
 3333WAT     H210107   0.977   4.197   1.866
 3334WAT      O10108   1.130   4.552   1.097
 3334WAT     H110109   1.057   4.603   1.132
 3334WAT     H210110   1.090   4.471   1.067
 3335WAT      O10111   0.774   4.220   0.937
 3335WAT     H110112   0.774   4.176   0.852
 3335WAT     H210113   0.863   4.252   0.948
 3336WAT      O10114   0.359   4.208   0.833
 3336WAT     H110115   0.325   4.256   0.909
 3336WAT     H210116   0.282   4.163   0.797
 3337WAT      O10117   0.780   4.320   0.236
 3337WAT     H110118   0.792   4.316   0.331
 3337WAT     H210119   0.741   4.406   0.221
 3338WAT      O10120   1.176   4.098   1.038
 3338WAT     H110121   1.178   4.143   1.122
 3338WAT     H210122   1.151   4.008   1.059
 3339WAT      O10123   1.519   3.839   1.622
 3339WAT     H110124   1.551   3.766   1.674
 3339WAT     H210125   1.522   3.807   1.532
 3340WAT      O10126   0.189   4.941   1.564
 3340WAT     H110127   0.150   4.877   1.624
 3340WAT     H210128   0.220   5.011   1.621
 3341WAT      O10129   0.804   4.626   1.112
 3341WAT     H110130   0.840   4.578   1.187
 3341WAT     H210131   0.785   4.713   1.146
 3342WAT      O10132   0.583   4.530   1.344
 3342WAT     H110133   0.552   4.618   1.366
 3342WAT     H210134   0.678   4.536   1.347
 3343WAT      O10135   0.436   4.951   0.403
 3343WAT     H110136   0.358   4.897   0.387
 3343WAT     H210137   0.509   4.899   0.370
 3344WAT      O10138   1.511   4.850   0.983
 3344WAT     H110139   1.583   4.900   0.944
 3344WAT     H210140   1.491   4.782   0.918
 3345WAT      O10141   1.058   3.990   0.397
 3345WAT     H110142   0.976   3.940   0.389
 3345WAT     H210143   1.038   4.074   0.355
 3346WAT      O10144   1.050   4.857   1.571
 3346WAT     H110145   1.043   4.765   1.546
 3346WAT     H210146   0.987   4.867   1.643
 3347WAT      O10147   1.329   4.427   0.227
 3347WAT     H110148   1.418   4.458   0.209
 3347WAT     H210149   1.326   4.340   0.187
 3348WAT      O10150   0.440   4.917   0.767
 3348WAT     H110151   0.492   4.837   0.762
 3348WAT     H210152   0.395   4.911   0.851
 3349WAT      O10153   0.929   5.044   0.294
 3349WAT     H110154   0.963   5.118   0.245
 3349WAT     H210155   0.846   5.075   0.331
 3350WAT      O10156   0.188   4.614   1.458
 3350WAT     H110157   0.153   4.681   1.517
 3350WAT     H210158   0.159   4.531   1.496
 3351WAT      O10159   0.509   4.660   1.747
 3351WAT     H110160   0.479   4.674   1.657
 3351WAT     H210161   0.586   4.604   1.738
 3352WAT      O10162   1.043   5.140   1.546
 3352WAT     H110163   1.044   5.046   1.525
 3352WAT     H210164   0.972   5.148   1.610
 3353WAT      O10165   1.664   4.804   1.481
 3353WAT     H110166   1.591   4.863   1.461
 3353WAT     H210167   1.717   4.803   1.401
 3354WAT      O10168   1.659   5.243   0.446
 3354WAT     H110169   1.595   5.178   0.474
 3354WAT     H210170   1.620   5.284   0.369
 3355WAT      O10171   1.217   4.976   0.831
 3355WAT     H110172   1.252   4.916   0.765
 3355WAT     H210173   1.129   4.944   0.848
 3356WAT      O10174   0.826   5.052   0.572
 3356WAT     H110175   0.894   5.107   0.610
 3356WAT     H210176   0.747   5.107   0.575
 3357WAT      O10177   0.756   4.753   0.533
 3357WAT     H110178   0.801   4.834   0.555
 3357WAT     H210179   0.721   4.721   0.616
 3358WAT      O10180   0.986   5.304   1.256
 3358WAT     H110181   1.051   5.324   1.324
 3358WAT     H210182   1.022   5.228   1.211
 3359WAT      O10183   0.346   3.787   0.580
 3359WAT     H110184   0.333   3.786   0.675
 3359WAT     H210185   0.264   3.821   0.545
 3360WAT      O10186   1.113   5.104   1.128
 3360WAT     H110187   1.178   5.034   1.139
 3360WAT     H210188   1.166   5.182   1.110
 3361WAT      O10189   1.291   5.184   1.448
 3361WAT     H110190   1.324   5.243   1.516
 3361WAT     H210191   1.199   5.171   1.471
 3362WAT      O10192   1.456   4.924   0.266
 3362WAT     H110193   1.427   4.970   0.345
 3362WAT     H210194   1.536   4.878   0.293
 3363WAT      O10195   0.874   5.189   1.765
 3363WAT     H110196   0.842   5.117   1.819
 3363WAT     H210197   0.806   5.256   1.772
 3364WAT      O10198   0.678   5.274   0.259
 3364WAT     H110199   0.677   5.347   0.198
 3364WAT     H210200   0.586   5.249   0.268
 3365WAT      O10201   0.238   4.796   0.334
 3365WAT     H110202   0.177   4.870   0.335
 3365WAT     H210203   0.285   4.805   0.251
 3366WAT      O10204   1.195   4.212   1.301
 3366WAT     H110205   1.232   4.130   1.334
 3366WAT     H210206   1.109   4.218   1.343
 3367WAT      O10207   1.532   4.108   0.382
 3367WAT     H110208   1.469   4.118   0.311
 3367WAT     H210209   1.482   4.130   0.461
 3368WAT      O10210   0.729   4.336   0.524
 3368WAT     H110211   0.658   4.382   0.568
 3368WAT     H210212   0.757   4.270   0.587
 3369WAT      O10213   0.891   4.478   1.324
 3369WAT     H110214   0.941   4.525   1.390
 3369WAT     H210215   0.906   4.385   1.344
 3370WAT      O10216   1.132   4.008   0.668
 3370WAT     H110217   1.120   4.010   0.573
 3370WAT     H210218   1.227   4.013   0.680
 3371WAT      O10219   0.549   4.166   0.261
 3371WAT     H110220   0.634   4.210   0.255
 3371WAT     H210221   0.512   4.198   0.344
 3372WAT      O10222   1.612   4.099   1.408
 3372WAT     H110223   1.562   4.173   1.442
 3372WAT     H210224   1.694   4.138   1.376
 3373WAT      O10225   1.441   4.624   0.752
 3373WAT     H110226   1.347   4.625   0.770
 3373WAT     H210227   1.473   4.545   0.797
 3374WAT      O10228   0.308   4.535   0.177
 3374WAT     H110229   0.317   4.440   0.188
 3374WAT     H210230   0.398   4.568   0.187
 3375WAT      O10231   1.173   5.079   1.801
 3375WAT     H110232   1.112   5.082   1.727
 3375WAT     H210233   1.142   5.006   1.854
 3376WAT      O10234   0.767   4.858   1.654
 3376WAT     H110235   0.690   4.915   1.645
 3376WAT     H210236   0.785   4.829   1.564
 3377WAT      O10237   1.481   5.031   1.709
 3377WAT     H110238   1.555   5.065   1.659
 3377WAT     H210239   1.405   5.048   1.654
 3378WAT      O10240   0.264   4.531   1.790
 3378WAT     H110241   0.268   4.502   1.881
 3378WAT     H210242   0.350   4.572   1.774
 3379WAT      O10243   0.642   4.791   0.306
 3379WAT     H110244   0.684   4.775   0.390
 3379WAT     H210245   0.655   4.710   0.256
 3380WAT      O10246   0.458   4.389   1.587
 3380WAT     H110247   0.405   4.340   1.524
 3380WAT     H210248   0.525   4.432   1.533
 3381WAT      O10249   1.348   4.836   1.563
 3381WAT     H110250   1.390   4.852   1.648
 3381WAT     H210251   1.255   4.849   1.579
 3382WAT      O10252   1.395   4.570   1.763
 3382WAT     H110253   1.454   4.495   1.755
 3382WAT     H210254   1.413   4.623   1.686
 3383WAT      O10255   0.507   4.086   1.595
 3383WAT     H110256   0.498   4.024   1.522
 3383WAT     H210257   0.449   4.159   1.572
 3384WAT      O10258   0.784   3.942   1.298
 3384WAT     H110259   0.739   3.944   1.213
 3384WAT     H210260   0.720   3.902   1.358
 3385WAT      O10261   0.824   4.831   1.360
 3385WAT     H110262   0.866   4.916   1.343
 3385WAT     H210263   0.732   4.845   1.337
 3386WAT      O10264   1.058   4.604   1.498
 3386WAT     H110265   1.070   4.545   1.572
 3386WAT     H210266   1.144   4.608   1.456
 3387WAT      O10267   1.292   4.660   1.356
 3387WAT     H110268   1.239   4.712   1.296
 3387WAT     H210269   1.326   4.723   1.419
 3388WAT      O10270   0.735   4.259   1.624
 3388WAT     H110271   0.794   4.228   1.693
 3388WAT     H210272   0.653   4.211   1.640
 3389WAT      O10273   1.217   4.220   1.647
 3389WAT     H110274   1.148   4.154   1.641
 3389WAT     H210275   1.289   4.176   1.692
 3390WAT      O10276   1.280   3.880   0.253
 3390WAT     H110277   1.308   3.796   0.289
 3390WAT     H210278   1.202   3.903   0.305
 3391WAT      O10279   0.495   5.151   0.594
 3391WAT     H110280   0.465   5.139   0.684
 3391WAT     H210281   0.484   5.065   0.553
 3392WAT      O10282   1.648   5.355   1.530
 3392WAT     H110283   1.588   5.361   1.456
 3392WAT     H210284   1.661   5.261   1.543
 3393WAT      O10285   1.717   4.804   0.314
 3393WAT     H110286   1.794   4.861   0.325
 3393WAT     H210287   1.719   4.747   0.392
 3394WAT      O10288   1.818   4.889   0.799
 3394WAT     H110289   1.855   4.811   0.758
 3394WAT     H210290   1.882   4.958   0.781
 3395WAT      O10291   1.516   5.027   1.340
 3395WAT     H110292   1.435   5.070   1.366
 3395WAT     H210293   1.557   5.089   1.279
 3396WAT      O10294   1.712   4.627   0.529
 3396WAT     H110295   1.675   4.550   0.486
 3396WAT     H210296   1.639   4.665   0.578
 3397WAT      O10297   1.651   4.541   1.493
 3397WAT     H110298   1.628   4.518   1.403
 3397WAT     H210299   1.677   4.633   1.488
 3398WAT      O10300   1.495   4.064   1.771
 3398WAT     H110301   1.583   4.065   1.809
 3398WAT     H210302   1.496   3.990   1.710
 3399WAT      O10303   1.640   4.449   0.860
 3399WAT     H110304   1.692   4.400   0.796
 3399WAT     H210305   1.698   4.463   0.934
 3400WAT      O10306   1.658   4.458   1.212
 3400WAT     H110307   1.563   4.454   1.223
 3400WAT     H210308   1.676   4.549   1.188
 3401WAT      O10309   1.589   4.375   0.453
 3401WAT     H110310   1.638   4.352   0.532
 3401WAT     H210311   1.569   4.291   0.412
 3402WAT      O10312   0.177   3.813   1.017
 3402WAT     H110313   0.242   3.758   0.973
 3402WAT     H210314   0.219   3.839   1.099
 3403WAT      O10315   1.732   4.239   0.707
 3403WAT     H110316   1.721   4.223   0.801
 3403WAT     H210317   1.808   4.186   0.683
 3404WAT      O10318   1.566   3.832   1.353
 3404WAT     H110319   1.630   3.894   1.389
 3404WAT     H210320   1.581   3.836   1.258
 3405WAT      O10321   1.828   4.099   0.293
 3405WAT     H110322   1.748   4.092   0.346
 3405WAT     H210323   1.848   4.192   0.292
 3406WAT      O10324   0.313   5.146   1.708
 3406WAT     H110325   0.308   5.109   1.796
 3406WAT     H210326   0.326   5.240   1.722
 3407WAT      O10327   0.683   5.301   1.268
 3407WAT     H110328   0.659   5.328   1.179
 3407WAT     H210329   0.777   5.318   1.273
 3408WAT      O10330   0.903   3.948   1.643
 3408WAT     H110331   0.897   4.007   1.718
 3408WAT     H210332   0.997   3.937   1.629
 3409WAT      O10333   1.167   3.913   1.607
 3409WAT     H110334   1.229   3.945   1.541
 3409WAT     H210335   1.222   3.865   1.669
 3410WAT      O10336   0.219   3.781   1.619
 3410WAT     H110337   0.274   3.763   1.542
 3410WAT     H210338   0.226   3.702   1.672
 3411WAT      O10339   1.241   3.770   1.240
 3411WAT     H110340   1.154   3.803   1.220
 3411WAT     H210341   1.230   3.723   1.323
 3412WAT      O10342   1.332   3.990   1.378
 3412WAT     H110343   1.299   3.909   1.340
 3412WAT     H210344   1.427   3.986   1.366
 3413WAT      O10345   0.260   5.177   1.315
 3413WAT     H110346   0.187   5.115   1.308
 3413WAT     H210347   0.266   5.216   1.228
 3414WAT      O10348   1.016   3.861   1.134
 3414WAT     H110349   0.938   3.909   1.162
 3414WAT     H210350   0.987   3.771   1.123
 3415WAT      O10351   1.471   3.932   0.938
 3415WAT     H110352   1.515   3.926   0.854
 3415WAT     H210353   1.444   4.023   0.946
 3416WAT      O10354   1.658   3.895   0.740
 3416WAT     H110355   1.651   3.800   0.725
 3416WAT     H210356   1.735   3.906   0.794
 3417WAT      O10357   0.805   4.103   0.685
 3417WAT     H110358   0.723   4.066   0.651
 3417WAT     H210359   0.855   4.028   0.715
 3418WAT      O10360   1.255   3.770   0.809
 3418WAT     H110361   1.315   3.827   0.856
 3418WAT     H210362   1.181   3.826   0.787
 3419WAT      O10363   1.569   3.810   0.336
 3419WAT     H110364   1.589   3.900   0.363
 3419WAT     H210365   1.490   3.787   0.386
 3420WAT      O10366   0.388   3.945   0.240
 3420WAT     H110367   0.441   3.866   0.227
 3420WAT     H210368   0.451   4.012   0.263
 3421WAT      O10369   0.607   3.918   0.546
 3421WAT     H110370   0.544   3.848   0.562
 3421WAT     H210371   0.553   3.994   0.524
 3422WAT      O10372   0.620   3.846   1.789
 3422WAT     H110373   0.591   3.897   1.713
 3422WAT     H210374   0.658   3.766   1.752
 3423WAT      O10375   0.425   5.185   0.268
 3423WAT     H110376   0.362   5.231   0.323
 3423WAT     H210377   0.436   5.100   0.312
 3424WAT      O10378   1.280   3.788   1.847
 3424WAT     H110379   1.268   3.820   1.936
 3424WAT     H210380   1.361   3.828   1.817
 3425WAT      O10381   1.170   2.712   4.516
 3425WAT     H110382   1.162   2.621   4.488
 3425WAT     H210383   1.129   2.762   4.445
 3426WAT      O10384   0.983   2.890   4.704
 3426WAT     H110385   0.906   2.842   4.733
 3426WAT     H210386   1.049   2.822   4.686
 3427WAT      O10387   0.385   2.921   4.791
 3427WAT     H110388   0.302   2.896   4.831
 3427WAT     H210389   0.446   2.928   4.865
 3428WAT      O10390   1.386   3.331   4.582
 3428WAT     H110391   1.339   3.253   4.614
 3428WAT     H210392   1.467   3.333   4.632
 3429WAT      O10393   0.383   3.325   4.811
 3429WAT     H110394   0.413   3.236   4.793
 3429WAT     H210395   0.458   3.380   4.788
 3430WAT      O10396   1.008   3.559   4.544
 3430WAT     H110397   0.946   3.605   4.487
 3430WAT     H210398   1.094   3.575   4.504
 3431WAT      O10399   0.928   3.158   4.704
 3431WAT     H110400   0.921   3.063   4.688
 3431WAT     H210401   1.004   3.167   4.762
 3432WAT      O10402   1.031   2.438   4.727
 3432WAT     H110403   1.068   2.351   4.716
 3432WAT     H210404   1.021   2.472   4.638
 3433WAT      O10405   0.444   2.276   4.273
 3433WAT     H110406   0.454   2.366   4.304
 3433WAT     H210407   0.353   2.271   4.244
 3434WAT      O10408   1.409   2.188   4.420
 3434WAT     H110409   1.491   2.139   4.425
 3434WAT     H210410   1.412   2.247   4.496
 3435WAT      O10411   0.209   2.468   4.798
 3435WAT     H110412   0.277   2.494   4.860
 3435WAT     H210413   0.177   2.384   4.831
 3436WAT      O10414   0.628   2.572   4.706
 3436WAT     H110415   0.679   2.622   4.770
 3436WAT     H210416   0.681   2.495   4.689
 3437WAT      O10417   1.838   2.389   5.077
 3437WAT     H110418   1.767   2.428   5.025
 3437WAT     H210419   1.864   2.459   5.137
 3438WAT      O10420   0.456   2.036   5.133
 3438WAT     H110421   0.456   2.088   5.053
 3438WAT     H210422   0.373   1.989   5.131
 3439WAT      O10423   1.095   3.048   4.283
 3439WAT     H110424   1.033   3.094   4.227
 3439WAT     H210425   1.146   3.117   4.325
 3440WAT      O10426   0.581   3.000   4.951
 3440WAT     H110427   0.548   3.063   5.015
 3440WAT     H210428   0.599   3.053   4.873
 3441WAT      O10429   1.432   2.382   4.698
 3441WAT     H110430   1.362   2.411   4.756
 3441WAT     H210431   1.469   2.463   4.662
 3442WAT      O10432   0.424   2.207   4.934
 3442WAT     H110433   0.458   2.292   4.904
 3442WAT     H210434   0.330   2.222   4.945
 3443WAT      O10435   0.502   3.197   5.132
 3443WAT     H110436   0.564   3.265   5.104
 3443WAT     H210437   0.416   3.238   5.123
 3444WAT      O10438   1.594   3.344   4.924
 3444WAT     H110439   1.526   3.411   4.923
 3444WAT     H210440   1.648   3.363   4.847
 3445WAT      O10441   1.739   2.326   4.737
 3445WAT     H110442   1.645   2.330   4.750
 3445WAT     H210443   1.772   2.408   4.775
 3446WAT      O10444   0.793   1.956   4.566
 3446WAT     H110445   0.823   1.901   4.495
 3446WAT     H210446   0.700   1.970   4.548
 3447WAT      O10447   1.348   3.528   4.795
 3447WAT     H110448   1.349   3.488   4.709
 3447WAT     H210449   1.292   3.605   4.785
 3448WAT      O10450   1.477   3.200   4.304
 3448WAT     H110451   1.466   3.106   4.317
 3448WAT     H210452   1.477   3.236   4.393
 3449WAT      O10453   1.288   3.018   4.928
 3449WAT     H110454   1.329   2.997   4.845
 3449WAT     H210455   1.360   3.044   4.985
 3450WAT      O10456   1.031   2.763   4.240
 3450WAT     H110457   0.939   2.756   4.263
 3450WAT     H210458   1.047   2.857   4.228
 3451WAT      O10459   1.030   2.390   3.939
 3451WAT     H110460   0.936   2.406   3.948
 3451WAT     H210461   1.062   2.462   3.885
 3452WAT      O10462   1.682   2.858   4.937
 3452WAT     H110463   1.599   2.865   4.890
 3452WAT     H210464   1.742   2.917   4.890
 3453WAT      O10465   1.434   2.919   4.290
 3453WAT     H110466   1.372   2.885   4.225
 3453WAT     H210467   1.433   2.855   4.361
 3454WAT      O10468   1.379   2.537   5.032
 3454WAT     H110469   1.337   2.619   5.057
 3454WAT     H210470   1.305   2.478   5.013
 3455WAT      O10471   0.592   2.815   4.518
 3455WAT     H110472   0.551   2.744   4.468
 3455WAT     H210473   0.601   2.781   4.607
 3456WAT      O10474   0.639   3.184   4.734
 3456WAT     H110475   0.609   3.124   4.666
 3456WAT     H210476   0.734   3.188   4.723
 3457WAT      O10477   0.463   2.493   4.896
 3457WAT     H110478   0.518   2.504   4.819
 3457WAT     H210479   0.515   2.530   4.968
 3458WAT      O10480   1.448   3.541   5.101
 3458WAT     H110481   1.400   3.622   5.081
 3458WAT     H210482   1.379   3.476   5.116
 3459WAT      O10483   0.548   3.158   5.399
 3459WAT     H110484   0.458   3.180   5.424
 3459WAT     H210485   0.550   3.170   5.305
 3460WAT      O10486   1.252   2.843   3.991
 3460WAT     H110487   1.296   2.759   3.976
 3460WAT     H210488   1.323   2.906   4.000
 3461WAT      O10489   0.431   2.845   5.257
 3461WAT     H110490   0.417   2.932   5.294
 3461WAT     H210491   0.342   2.811   5.243
 3462WAT      O10492   1.063   3.337   4.388
 3462WAT     H110493   1.107   3.411   4.346
 3462WAT     H210494   1.057   3.361   4.480
 3463WAT      O10495   1.610   1.968   3.822
 3463WAT     H110496   1.579   1.978   3.912
 3463WAT     H210497   1.686   2.026   3.817
 3464WAT      O10498   0.262   2.705   4.268
 3464WAT     H110499   0.250   2.778   4.207
 3464WAT     H210500   0.231   2.628   4.220
 3465WAT      O10501   1.746   3.237   5.324
 3465WAT     H110502   1.759   3.213   5.232
 3465WAT     H210503   1.750   3.154   5.371
 3466WAT      O10504   1.132   3.607   5.181
 3466WAT     H110505   1.184   3.598   5.261
 3466WAT     H210506   1.048   3.642   5.210
 3467WAT      O10507   1.330   3.636   4.123
 3467WAT     H110508   1.314   3.607   4.213
 3467WAT     H210509   1.313   3.558   4.070
 3468WAT      O10510   0.578   3.613   4.301
 3468WAT     H110511   0.560   3.522   4.280
 3468WAT     H210512   0.492   3.649   4.325
 3469WAT      O10513   1.300   3.386   3.979
 3469WAT     H110514   1.231   3.386   3.913
 3469WAT     H210515   1.374   3.344   3.936
 3470WAT      O10516   1.256   3.549   4.387
 3470WAT     H110517   1.302   3.471   4.418
 3470WAT     H210518   1.290   3.620   4.441
 3471WAT      O10519   1.731   2.442   5.420
 3471WAT     H110520   1.670   2.493   5.367
 3471WAT     H210521   1.699   2.352   5.414
 3472WAT      O10522   0.509   2.039   4.606
 3472WAT     H110523   0.464   2.117   4.573
 3472WAT     H210524   0.564   2.072   4.677
 3473WAT      O10525   0.937   2.326   5.167
 3473WAT     H110526   0.891   2.347   5.248
 3473WAT     H210527   0.897   2.245   5.136
 3474WAT      O10528   1.437   2.448   5.280
 3474WAT     H110529   1.352   2.418   5.312
 3474WAT     H210530   1.421   2.472   5.188
 3475WAT      O10531   0.820   2.001   4.094
 3475WAT     H110532   0.758   2.001   4.167
 3475WAT     H210533   0.811   1.915   4.055
 3476WAT      O10534   0.712   2.094   4.792
 3476WAT     H110535   0.742   2.184   4.784
 3476WAT     H210536   0.767   2.045   4.731
 3477WAT      O10537   0.488   2.552   4.379
 3477WAT     H110538   0.465   2.530   4.470
 3477WAT     H210539   0.410   2.595   4.345
 3478WAT      O10540   1.211   2.552   4.239
 3478WAT     H110541   1.151   2.625   4.221
 3478WAT     H210542   1.266   2.546   4.161
 3479WAT      O10543   1.071   2.416   4.442
 3479WAT     H110544   1.111   2.448   4.361
 3479WAT     H210545   1.108   2.328   4.454
 3480WAT      O10546   0.245   2.283   5.261
 3480WAT     H110547   0.205   2.367   5.282
 3480WAT     H210548   0.176   2.219   5.280
 3481WAT      O10549   1.130   2.675   4.852
 3481WAT     H110550   1.057   2.726   4.886
 3481WAT     H210551   1.090   2.593   4.821
 3482WAT      O10552   0.774   2.342   4.692
 3482WAT     H110553   0.774   2.298   4.607
 3482WAT     H210554   0.863   2.375   4.703
 3483WAT      O10555   0.359   2.331   4.588
 3483WAT     H110556   0.325   2.378   4.664
 3483WAT     H210557   0.282   2.285   4.552
 3484WAT      O10558   0.780   2.443   3.991
 3484WAT     H110559   0.792   2.438   4.086
 3484WAT     H210560   0.741   2.529   3.976
 3485WAT      O10561   1.176   2.220   4.793
 3485WAT     H110562   1.178   2.265   4.877
 3485WAT     H210563   1.151   2.130   4.814
 3486WAT      O10564   0.681   2.674   3.931
 3486WAT     H110565   0.624   2.629   3.868
 3486WAT     H210566   0.752   2.709   3.878
 3487WAT      O10567   0.189   3.064   5.319
 3487WAT     H110568   0.150   3.000   5.379
 3487WAT     H210569   0.220   3.134   5.376
 3488WAT      O10570   0.804   2.748   4.867
 3488WAT     H110571   0.840   2.701   4.941
 3488WAT     H210572   0.785   2.836   4.901
 3489WAT      O10573   0.583   2.653   5.099
 3489WAT     H110574   0.552   2.740   5.121
 3489WAT     H210575   0.678   2.659   5.102
 3490WAT      O10576   0.436   3.073   4.158
 3490WAT     H110577   0.358   3.019   4.142
 3490WAT     H210578   0.509   3.021   4.124
 3491WAT      O10579   1.511   2.973   4.738
 3491WAT     H110580   1.583   3.022   4.698
 3491WAT     H210581   1.491   2.905   4.673
 3492WAT      O10582   1.058   2.112   4.152
 3492WAT     H110583   0.976   2.062   4.144
 3492WAT     H210584   1.038   2.196   4.110
 3493WAT      O10585   1.050   2.980   5.326
 3493WAT     H110586   1.043   2.888   5.301
 3493WAT     H210587   0.987   2.990   5.398
 3494WAT      O10588   1.329   2.549   3.981
 3494WAT     H110589   1.418   2.581   3.964
 3494WAT     H210590   1.326   2.462   3.942
 3495WAT      O10591   0.440   3.040   4.522
 3495WAT     H110592   0.492   2.960   4.517
 3495WAT     H210593   0.395   3.034   4.606
 3496WAT      O10594   0.929   3.167   4.049
 3496WAT     H110595   0.963   3.241   4.000
 3496WAT     H210596   0.846   3.198   4.086
 3497WAT      O10597   0.188   2.737   5.213
 3497WAT     H110598   0.153   2.803   5.272
 3497WAT     H210599   0.159   2.653   5.250
 3498WAT      O10600   1.043   3.262   5.301
 3498WAT     H110601   1.044   3.169   5.279
 3498WAT     H210602   0.972   3.271   5.365
 3499WAT      O10603   1.556   2.680   3.928
 3499WAT     H110604   1.548   2.724   3.843
 3499WAT     H210605   1.628   2.726   3.972
 3500WAT      O10606   1.664   2.926   5.236
 3500WAT     H110607   1.591   2.985   5.216
 3500WAT     H210608   1.717   2.925   5.156
 3501WAT      O10609   1.659   3.366   4.201
 3501WAT     H110610   1.595   3.300   4.229
 3501WAT     H210611   1.620   3.406   4.123
 3502WAT      O10612   1.217   3.099   4.586
 3502WAT     H110613   1.252   3.039   4.520
 3502WAT     H210614   1.129   3.066   4.603
 3503WAT      O10615   0.826   3.175   4.326
 3503WAT     H110616   0.894   3.229   4.365
 3503WAT     H210617   0.747   3.229   4.330
 3504WAT      O10618   0.756   2.875   4.288
 3504WAT     H110619   0.801   2.956   4.310
 3504WAT     H210620   0.721   2.843   4.371
 3505WAT      O10621   0.986   3.426   5.011
 3505WAT     H110622   1.051   3.447   5.078
 3505WAT     H210623   1.022   3.350   4.965
 3506WAT      O10624   0.346   1.910   4.335
 3506WAT     H110625   0.333   1.909   4.430
 3506WAT     H210626   0.264   1.943   4.300
 3507WAT      O10627   1.113   3.227   4.882
 3507WAT     H110628   1.178   3.157   4.894
 3507WAT     H210629   1.166   3.305   4.864
 3508WAT      O10630   1.498   3.255   3.855
 3508WAT     H110631   1.475   3.183   3.914
 3508WAT     H210632   1.459   3.230   3.771
 3509WAT      O10633   1.291   3.307   5.203
 3509WAT     H110634   1.324   3.365   5.271
 3509WAT     H210635   1.199   3.293   5.226
 3510WAT      O10636   1.456   3.047   4.021
 3510WAT     H110637   1.427   3.093   4.100
 3510WAT     H210638   1.536   3.001   4.048
 3511WAT      O10639   0.678   3.396   4.014
 3511WAT     H110640   0.677   3.469   3.952
 3511WAT     H210641   0.586   3.371   4.023
 3512WAT      O10642   0.238   2.918   4.088
 3512WAT     H110643   0.177   2.992   4.089
 3512WAT     H210644   0.285   2.927   4.006
 3513WAT      O10645   1.195   2.335   5.056
 3513WAT     H110646   1.232   2.253   5.089
 3513WAT     H210647   1.109   2.341   5.098
 3514WAT      O10648   1.532   2.230   4.137
 3514WAT     H110649   1.469   2.241   4.066
 3514WAT     H210650   1.482   2.252   4.216
 3515WAT      O10651   0.976   3.402   3.880
 3515WAT     H110652   0.987   3.382   3.787
 3515WAT     H210653   0.886   3.377   3.901
 3516WAT      O10654   0.729   2.458   4.279
 3516WAT     H110655   0.658   2.505   4.323
 3516WAT     H210656   0.757   2.392   4.342
 3517WAT      O10657   0.891   2.600   5.078
 3517WAT     H110658   0.941   2.648   5.145
 3517WAT     H210659   0.906   2.508   5.099
 3518WAT      O10660   1.132   2.131   4.422
 3518WAT     H110661   1.120   2.133   4.328
 3518WAT     H210662   1.227   2.135   4.434
 3519WAT      O10663   0.841   3.654   4.350
 3519WAT     H110664   0.866   3.650   4.258
 3519WAT     H210665   0.746   3.642   4.349
 3520WAT      O10666   0.549   2.289   4.016
 3520WAT     H110667   0.634   2.333   4.009
 3520WAT     H210668   0.512   2.320   4.099
 3521WAT      O10669   1.612   2.222   5.163
 3521WAT     H110670   1.562   2.296   5.197
 3521WAT     H210671   1.694   2.261   5.131
 3522WAT      O10672   1.441   2.746   4.507
 3522WAT     H110673   1.347   2.748   4.525
 3522WAT     H210674   1.473   2.667   4.552
 3523WAT      O10675   0.439   2.914   3.863
 3523WAT     H110676   0.516   2.903   3.920
 3523WAT     H210677   0.447   2.845   3.798
 3524WAT      O10678   0.308   2.658   3.932
 3524WAT     H110679   0.317   2.563   3.943
 3524WAT     H210680   0.398   2.691   3.942
 3525WAT      O10681   1.641   3.463   4.675
 3525WAT     H110682   1.654   3.546   4.722
 3525WAT     H210683   1.728   3.442   4.640
 3526WAT      O10684   0.389   3.673   4.642
 3526WAT     H110685   0.462   3.618   4.669
 3526WAT     H210686   0.427   3.759   4.628
 3527WAT      O10687   0.700   3.590   3.824
 3527WAT     H110688   0.779   3.619   3.779
 3527WAT     H210689   0.648   3.547   3.756
 3528WAT      O10690   1.605   3.513   3.967
 3528WAT     H110691   1.576   3.471   3.885
 3528WAT     H210692   1.585   3.605   3.955
 3529WAT      O10693   0.751   3.112   3.811
 3529WAT     H110694   0.741   3.050   3.883
 3529WAT     H210695   0.735   3.060   3.732
 3530WAT      O10696   0.767   2.980   5.409
 3530WAT     H110697   0.690   3.037   5.400
 3530WAT     H210698   0.785   2.951   5.319
 3531WAT      O10699   1.075   3.018   3.871
 3531WAT     H110700   1.021   3.063   3.936
 3531WAT     H210701   1.138   2.968   3.924
 3532WAT      O10702   0.642   2.914   4.061
 3532WAT     H110703   0.684   2.897   4.145
 3532WAT     H210704   0.655   2.833   4.011
 3533WAT      O10705   0.458   2.512   5.342
 3533WAT     H110706   0.405   2.463   5.279
 3533WAT     H210707   0.525   2.555   5.288
 3534WAT      O10708   0.893   2.816   3.786
 3534WAT     H110709   0.946   2.745   3.749
 3534WAT     H210710   0.958   2.880   3.816
 3535WAT      O10711   1.348   2.959   5.318
 3535WAT     H110712   1.390   2.974   5.403
 3535WAT     H210713   1.255   2.971   5.334
 3536WAT      O10714   0.507   2.209   5.349
 3536WAT     H110715   0.498   2.147   5.277
 3536WAT     H210716   0.449   2.281   5.327
 3537WAT      O10717   0.784   2.064   5.053
 3537WAT     H110718   0.739   2.067   4.968
 3537WAT     H210719   0.720   2.024   5.112
 3538WAT      O10720   0.824   2.954   5.115
 3538WAT     H110721   0.866   3.038   5.098
 3538WAT     H210722   0.732   2.968   5.092
 3539WAT      O10723   1.058   2.727   5.253
 3539WAT     H110724   1.070   2.667   5.327
 3539WAT     H210725   1.144   2.731   5.211
 3540WAT      O10726   1.292   2.782   5.111
 3540WAT     H110727   1.239   2.835   5.051
 3540WAT     H210728   1.326   2.846   5.174
 3541WAT      O10729   0.532   2.521   3.755
 3541WAT     H110730   0.512   2.435   3.792
 3541WAT     H210731   0.515   2.513   3.662
 3542WAT      O10732   0.609   3.584   5.226
 3542WAT     H110733   0.556   3.657   5.195
 3542WAT     H210734   0.635   3.537   5.147
 3543WAT      O10735   1.280   2.002   4.008
 3543WAT     H110736   1.308   1.918   4.044
 3543WAT     H210737   1.202   2.026   4.060
 3544WAT      O10738   0.412   2.231   3.754
 3544WAT     H110739   0.442   2.232   3.663
 3544WAT     H210740   0.486   2.196   3.804
 3545WAT      O10741   0.895   3.708   5.252
 3545WAT     H110742   0.888   3.798   5.283
 3545WAT     H210743   0.805   3.676   5.250
 3546WAT      O10744   0.733   2.126   3.853
 3546WAT     H110745   0.699   2.058   3.795
 3546WAT     H210746   0.754   2.080   3.934
 3547WAT      O10747   0.950   3.624   4.015
 3547WAT     H110748   1.039   3.658   4.017
 3547WAT     H210749   0.953   3.552   3.952
 3548WAT      O10750   0.314   3.162   3.837
 3548WAT     H110751   0.358   3.216   3.903
 3548WAT     H210752   0.362   3.079   3.838
 3549WAT      O10753   0.495   3.274   4.349
 3549WAT     H110754   0.465   3.261   4.439
 3549WAT     H210755   0.484   3.188   4.308
 3550WAT      O10756   1.648   3.478   5.285
 3550WAT     H110757   1.588   3.483   5.211
 3550WAT     H210758   1.661   3.384   5.298
 3551WAT      O10759   1.772   3.252   3.819
 3551WAT     H110760   1.689   3.258   3.866
 3551WAT     H210761   1.790   3.341   3.789
 3552WAT      O10762   1.717   2.926   4.069
 3552WAT     H110763   1.794   2.983   4.080
 3552WAT     H210764   1.719   2.869   4.146
 3553WAT      O10765   1.818   3.012   4.554
 3553WAT     H110766   1.855   2.933   4.513
 3553WAT     H210767   1.882   3.081   4.536
 3554WAT      O10768   1.516   3.150   5.095
 3554WAT     H110769   1.435   3.193   5.121
 3554WAT     H210770   1.557   3.211   5.034
 3555WAT      O10771   1.723   2.956   3.785
 3555WAT     H110772   1.750   3.046   3.772
 3555WAT     H210773   1.704   2.949   3.879
 3556WAT      O10774   1.362   2.258   3.915
 3556WAT     H110775   1.404   2.239   3.831
 3556WAT     H210776   1.332   2.173   3.946
 3557WAT      O10777   1.712   2.749   4.284
 3557WAT     H110778   1.675   2.672   4.241
 3557WAT     H210779   1.639   2.787   4.333
 3558WAT      O10780   1.651   2.664   5.248
 3558WAT     H110781   1.628   2.641   5.158
 3558WAT     H210782   1.677   2.756   5.243
 3559WAT      O10783   1.640   2.572   4.614
 3559WAT     H110784   1.692   2.522   4.551
 3559WAT     H210785   1.698   2.585   4.689
 3560WAT      O10786   1.658   2.580   4.967
 3560WAT     H110787   1.563   2.577   4.978
 3560WAT     H210788   1.676   2.671   4.943
 3561WAT      O10789   0.243   2.405   3.878
 3561WAT     H110790   0.314   2.363   3.829
 3561WAT     H210791   0.172   2.412   3.814
 3562WAT      O10792   0.208   2.011   3.782
 3562WAT     H110793   0.280   2.065   3.813
 3562WAT     H210794   0.235   1.983   3.694
 3563WAT      O10795   1.589   2.498   4.208
 3563WAT     H110796   1.638   2.474   4.287
 3563WAT     H210797   1.569   2.414   4.167
 3564WAT      O10798   0.177   1.936   4.772
 3564WAT     H110799   0.242   1.881   4.728
 3564WAT     H210800   0.219   1.961   4.854
 3565WAT      O10801   1.732   2.361   4.462
 3565WAT     H110802   1.721   2.346   4.556
 3565WAT     H210803   1.808   2.308   4.437
 3566WAT      O10804   1.566   1.955   5.108
 3566WAT     H110805   1.630   2.016   5.144
 3566WAT     H210806   1.581   1.959   5.013
 3567WAT      O10807   1.821   2.144   3.786
 3567WAT     H110808   1.913   2.131   3.765
 3567WAT     H210809   1.818   2.152   3.881
 3568WAT      O10810   1.828   2.221   4.048
 3568WAT     H110811   1.748   2.215   4.101
 3568WAT     H210812   1.848   2.315   4.047
 3569WAT      O10813   1.522   3.625   4.448
 3569WAT     H110814   1.582   3.593   4.380
 3569WAT     H210815   1.548   3.578   4.527
 3570WAT      O10816   0.683   3.424   5.023
 3570WAT     H110817   0.659   3.451   4.934
 3570WAT     H210818   0.777   3.441   5.028
 3571WAT      O10819   1.167   2.036   5.362
 3571WAT     H110820   1.229   2.068   5.296
 3571WAT     H210821   1.222   1.988   5.424
 3572WAT      O10822   1.809   3.626   5.103
 3572WAT     H110823   1.759   3.666   5.031
 3572WAT     H210824   1.748   3.563   5.142
 3573WAT      O10825   0.219   1.904   5.374
 3573WAT     H110826   0.274   1.886   5.297
 3573WAT     H210827   0.226   1.825   5.427
 3574WAT      O10828   0.297   3.563   5.175
 3574WAT     H110829   0.237   3.550   5.248
 3574WAT     H210830   0.296   3.479   5.128
 3575WAT      O10831   1.241   1.892   4.995
 3575WAT     H110832   1.154   1.926   4.975
 3575WAT     H210833   1.230   1.845   5.077
 3576WAT      O10834   1.332   2.113   5.133
 3576WAT     H110835   1.299   2.032   5.095
 3576WAT     H210836   1.427   2.109   5.121
 3577WAT      O10837   1.577   3.690   4.831
 3577WAT     H110838   1.531   3.765   4.793
 3577WAT     H210839   1.514   3.618   4.825
 3578WAT      O10840   0.260   3.300   5.070
 3578WAT     H110841   0.187   3.238   5.063
 3578WAT     H210842   0.266   3.339   4.983
 3579WAT      O10843   0.620   3.521   4.748
 3579WAT     H110844   0.672   3.460   4.696
 3579WAT     H210845   0.685   3.571   4.797
 3580WAT      O10846   0.894   3.610   4.831
 3580WAT     H110847   0.923   3.585   4.743
 3580WAT     H210848   0.945   3.555   4.890
 3581WAT      O10849   1.016   1.984   4.889
 3581WAT     H110850   0.938   2.031   4.917
 3581WAT     H210851   0.987   1.894   4.878
 3582WAT      O10852   1.471   2.054   4.693
 3582WAT     H110853   1.515   2.049   4.609
 3582WAT     H210854   1.444   2.146   4.700
 3583WAT      O10855   1.658   2.017   4.494
 3583WAT     H110856   1.651   1.923   4.480
 3583WAT     H210857   1.735   2.028   4.549
 3584WAT      O10858   0.805   2.226   4.440
 3584WAT     H110859   0.723   2.188   4.406
 3584WAT     H210860   0.855   2.150   4.470
 3585WAT      O10861   1.255   1.892   4.564
 3585WAT     H110862   1.315   1.950   4.611
 3585WAT     H210863   1.181   1.949   4.542
 3586WAT      O10864   1.569   1.933   4.091
 3586WAT     H110865   1.589   2.022   4.118
 3586WAT     H210866   1.490   1.909   4.141
 3587WAT      O10867   0.249   3.501   4.135
 3587WAT     H110868   0.196   3.539   4.065
 3587WAT     H210869   0.241   3.563   4.207
 3588WAT      O10870   0.388   2.067   3.995
 3588WAT     H110871   0.441   1.988   3.982
 3588WAT     H210872   0.451   2.135   4.018
 3589WAT      O10873   0.607   2.041   4.300
 3589WAT     H110874   0.544   1.971   4.317
 3589WAT     H210875   0.553   2.117   4.279
 3590WAT      O10876   1.724   3.657   4.267
 3590WAT     H110877   1.742   3.588   4.203
 3590WAT     H210878   1.655   3.709   4.228
 3591WAT      O10879   0.509   3.695   4.023
 3591WAT     H110880   0.582   3.667   3.968
 3591WAT     H210881   0.535   3.672   4.112
 3592WAT      O10882   0.425   3.307   4.023
 3592WAT     H110883   0.362   3.354   4.078
 3592WAT     H210884   0.436   3.223   4.067
 3593WAT      O10885   1.170   2.712   2.638
 3593WAT     H110886   1.162   2.621   2.611
 3593WAT     H210887   1.129   2.762   2.567
 3594WAT      O10888   0.983   2.890   2.826
 3594WAT     H110889   0.906   2.842   2.855
 3594WAT     H210890   1.049   2.822   2.809
 3595WAT      O10891   0.385   2.921   2.914
 3595WAT     H110892   0.302   2.896   2.954
 3595WAT     H210893   0.446   2.928   2.988
 3596WAT      O10894   1.386   3.331   2.704
 3596WAT     H110895   1.339   3.253   2.737
 3596WAT     H210896   1.467   3.333   2.755
 3597WAT      O10897   0.383   3.325   2.934
 3597WAT     H110898   0.413   3.236   2.916
 3597WAT     H210899   0.458   3.380   2.911
 3598WAT      O10900   1.008   3.559   2.666
 3598WAT     H110901   0.946   3.605   2.609
 3598WAT     H210902   1.094   3.575   2.626
 3599WAT      O10903   0.928   3.158   2.827
 3599WAT     H110904   0.921   3.063   2.811
 3599WAT     H210905   1.004   3.167   2.884
 3600WAT      O10906   1.031   2.438   2.850
 3600WAT     H110907   1.068   2.351   2.838
 3600WAT     H210908   1.021   2.472   2.760
 3601WAT      O10909   0.444   2.276   2.396
 3601WAT     H110910   0.454   2.366   2.426
 3601WAT     H210911   0.353   2.271   2.367
 3602WAT      O10912   1.409   2.188   2.543
 3602WAT     H110913   1.491   2.139   2.547
 3602WAT     H210914   1.412   2.247   2.618
 3603WAT      O10915   0.209   2.468   2.920
 3603WAT     H110916   0.277   2.494   2.982
 3603WAT     H210917   0.177   2.384   2.954
 3604WAT      O10918   0.628   2.572   2.829
 3604WAT     H110919   0.679   2.622   2.893
 3604WAT     H210920   0.681   2.495   2.811
 3605WAT      O10921   0.456   2.036   3.256
 3605WAT     H110922   0.456   2.088   3.175
 3605WAT     H210923   0.373   1.989   3.253
 3606WAT      O10924   1.095   3.048   2.406
 3606WAT     H110925   1.033   3.094   2.349
 3606WAT     H210926   1.146   3.117   2.447
 3607WAT      O10927   0.581   3.000   3.073
 3607WAT     H110928   0.548   3.063   3.138
 3607WAT     H210929   0.599   3.053   2.995
 3608WAT      O10930   1.432   2.382   2.820
 3608WAT     H110931   1.362   2.411   2.878
 3608WAT     H210932   1.469   2.463   2.784
 3609WAT      O10933   0.424   2.207   3.056
 3609WAT     H110934   0.458   2.292   3.027
 3609WAT     H210935   0.330   2.222   3.068
 3610WAT      O10936   0.502   3.197   3.255
 3610WAT     H110937   0.564   3.265   3.227
 3610WAT     H210938   0.416   3.238   3.246
 3611WAT      O10939   1.594   3.344   3.046
 3611WAT     H110940   1.526   3.411   3.046
 3611WAT     H210941   1.648   3.363   2.970
 3612WAT      O10942   0.793   1.956   2.689
 3612WAT     H110943   0.823   1.901   2.617
 3612WAT     H210944   0.700   1.970   2.671
 3613WAT      O10945   1.348   3.528   2.918
 3613WAT     H110946   1.349   3.488   2.831
 3613WAT     H210947   1.292   3.605   2.907
 3614WAT      O10948   1.477   3.200   2.427
 3614WAT     H110949   1.466   3.106   2.439
 3614WAT     H210950   1.477   3.236   2.515
 3615WAT      O10951   1.031   2.763   2.362
 3615WAT     H110952   0.939   2.756   2.385
 3615WAT     H210953   1.047   2.857   2.351
 3616WAT      O10954   1.030   2.390   2.062
 3616WAT     H110955   0.936   2.406   2.071
 3616WAT     H210956   1.062   2.462   2.007
 3617WAT      O10957   1.434   2.919   2.413
 3617WAT     H110958   1.372   2.885   2.348
 3617WAT     H210959   1.433   2.855   2.484
 3618WAT      O10960   0.592   2.815   2.641
 3618WAT     H110961   0.551   2.744   2.591
 3618WAT     H210962   0.601   2.781   2.729
 3619WAT      O10963   0.639   3.184   2.857
 3619WAT     H110964   0.609   3.124   2.789
 3619WAT     H210965   0.734   3.188   2.846
 3620WAT      O10966   0.463   2.493   3.019
 3620WAT     H110967   0.518   2.504   2.941
 3620WAT     H210968   0.515   2.530   3.090
 3621WAT      O10969   1.448   3.541   3.223
 3621WAT     H110970   1.400   3.622   3.204
 3621WAT     H210971   1.379   3.476   3.238
 3622WAT      O10972   0.548   3.158   3.522
 3622WAT     H110973   0.458   3.180   3.547
 3622WAT     H210974   0.550   3.170   3.427
 3623WAT      O10975   1.252   2.843   2.113
 3623WAT     H110976   1.296   2.759   2.099
 3623WAT     H210977   1.323   2.906   2.122
 3624WAT      O10978   0.431   2.845   3.380
 3624WAT     H110979   0.417   2.932   3.417
 3624WAT     H210980   0.342   2.811   3.365
 3625WAT      O10981   1.063   3.337   2.510
 3625WAT     H110982   1.107   3.411   2.469
 3625WAT     H210983   1.057   3.361   2.603
 3626WAT      O10984   0.610   3.439   3.600
 3626WAT     H110985   0.608   3.480   3.514
 3626WAT     H210986   0.594   3.346   3.584
 3627WAT      O10987   1.610   1.968   1.945
 3627WAT     H110988   1.579   1.978   2.035
 3627WAT     H210989   1.686   2.026   1.940
 3628WAT      O10990   0.262   2.705   2.391
 3628WAT     H110991   0.250   2.778   2.329
 3628WAT     H210992   0.231   2.628   2.343
 3629WAT      O10993   1.806   3.518   3.730
 3629WAT     H110994   1.853   3.565   3.798
 3629WAT     H210995   1.868   3.511   3.658
 3630WAT      O10996   1.746   3.237   3.446
 3630WAT     H110997   1.759   3.213   3.354
 3630WAT     H210998   1.750   3.154   3.493
 3631WAT      O10999   1.132   3.607   3.303
 3631WAT     H111000   1.184   3.598   3.383
 3631WAT     H211001   1.048   3.642   3.332
 3632WAT      O11002   1.330   3.636   2.246
 3632WAT     H111003   1.314   3.607   2.336
 3632WAT     H211004   1.313   3.558   2.192
 3633WAT      O11005   0.578   3.613   2.424
 3633WAT     H111006   0.560   3.522   2.402
 3633WAT     H211007   0.492   3.649   2.448
 3634WAT      O11008   1.300   3.386   2.102
 3634WAT     H111009   1.231   3.386   2.036
 3634WAT     H211010   1.374   3.344   2.059
 3635WAT      O11011   1.256   3.549   2.509
 3635WAT     H111012   1.302   3.471   2.541
 3635WAT     H211013   1.290   3.620   2.564
 3636WAT      O11014   1.731   2.442   3.543
 3636WAT     H111015   1.670   2.493   3.490
 3636WAT     H211016   1.699   2.352   3.537
 3637WAT      O11017   0.509   2.039   2.729
 3637WAT     H111018   0.464   2.117   2.696
 3637WAT     H211019   0.564   2.072   2.800
 3638WAT      O11020   0.937   2.326   3.289
 3638WAT     H111021   0.891   2.347   3.370
 3638WAT     H211022   0.897   2.245   3.259
 3639WAT      O11023   1.437   2.448   3.402
 3639WAT     H111024   1.352   2.418   3.434
 3639WAT     H211025   1.421   2.472   3.311
 3640WAT      O11026   1.147   2.598   3.612
 3640WAT     H111027   1.179   2.515   3.578
 3640WAT     H211028   1.226   2.650   3.627
 3641WAT      O11029   0.820   2.001   2.217
 3641WAT     H111030   0.758   2.001   2.289
 3641WAT     H211031   0.811   1.915   2.177
 3642WAT      O11032   0.712   2.094   2.915
 3642WAT     H111033   0.742   2.184   2.907
 3642WAT     H211034   0.767   2.045   2.853
 3643WAT      O11035   0.488   2.552   2.502
 3643WAT     H111036   0.465   2.530   2.592
 3643WAT     H211037   0.410   2.595   2.467
 3644WAT      O11038   1.211   2.552   2.362
 3644WAT     H111039   1.151   2.625   2.343
 3644WAT     H211040   1.266   2.546   2.283
 3645WAT      O11041   0.732   2.641   3.568
 3645WAT     H111042   0.722   2.547   3.553
 3645WAT     H211043   0.816   2.664   3.529
 3646WAT      O11044   1.071   2.416   2.565
 3646WAT     H111045   1.111   2.448   2.483
 3646WAT     H211046   1.108   2.328   2.576
 3647WAT      O11047   0.245   2.283   3.384
 3647WAT     H111048   0.205   2.367   3.404
 3647WAT     H211049   0.176   2.219   3.403
 3648WAT      O11050   0.902   2.291   3.691
 3648WAT     H111051   0.833   2.272   3.754
 3648WAT     H211052   0.977   2.319   3.744
 3649WAT      O11053   1.130   2.675   2.974
 3649WAT     H111054   1.057   2.726   3.009
 3649WAT     H211055   1.090   2.593   2.944
 3650WAT      O11056   0.774   2.342   2.815
 3650WAT     H111057   0.774   2.298   2.730
 3650WAT     H211058   0.863   2.375   2.825
 3651WAT      O11059   0.359   2.331   2.711
 3651WAT     H111060   0.325   2.378   2.786
 3651WAT     H211061   0.282   2.285   2.675
 3652WAT      O11062   0.780   2.443   2.114
 3652WAT     H111063   0.792   2.438   2.209
 3652WAT     H211064   0.741   2.529   2.098
 3653WAT      O11065   1.176   2.220   2.915
 3653WAT     H111066   1.178   2.265   3.000
 3653WAT     H211067   1.151   2.130   2.937
 3654WAT      O11068   0.681   2.674   2.054
 3654WAT     H111069   0.624   2.629   1.991
 3654WAT     H211070   0.752   2.709   2.000
 3655WAT      O11071   1.519   1.962   3.499
 3655WAT     H111072   1.551   1.888   3.552
 3655WAT     H211073   1.522   1.930   3.409
 3656WAT      O11074   0.189   3.064   3.441
 3656WAT     H111075   0.150   3.000   3.501
 3656WAT     H211076   0.220   3.134   3.498
 3657WAT      O11077   0.804   2.748   2.989
 3657WAT     H111078   0.840   2.701   3.064
 3657WAT     H211079   0.785   2.836   3.023
 3658WAT      O11080   0.583   2.653   3.221
 3658WAT     H111081   0.552   2.740   3.244
 3658WAT     H211082   0.678   2.659   3.225
 3659WAT      O11083   0.436   3.073   2.281
 3659WAT     H111084   0.358   3.019   2.265
 3659WAT     H211085   0.509   3.021   2.247
 3660WAT      O11086   1.058   2.112   2.274
 3660WAT     H111087   0.976   2.062   2.267
 3660WAT     H211088   1.038   2.196   2.233
 3661WAT      O11089   1.050   2.980   3.449
 3661WAT     H111090   1.043   2.888   3.423
 3661WAT     H211091   0.987   2.990   3.520
 3662WAT      O11092   1.329   2.549   2.104
 3662WAT     H111093   1.418   2.581   2.087
 3662WAT     H211094   1.326   2.462   2.065
 3663WAT      O11095   0.440   3.040   2.645
 3663WAT     H111096   0.492   2.960   2.639
 3663WAT     H211097   0.395   3.034   2.729
 3664WAT      O11098   0.929   3.167   2.172
 3664WAT     H111099   0.963   3.241   2.122
 3664WAT     H211100   0.846   3.198   2.208
 3665WAT      O11101   0.188   2.737   3.336
 3665WAT     H111102   0.153   2.803   3.395
 3665WAT     H211103   0.159   2.653   3.373
 3666WAT      O11104   0.509   2.782   3.624
 3666WAT     H111105   0.479   2.797   3.535
 3666WAT     H211106   0.586   2.726   3.615
 3667WAT      O11107   1.043   3.262   3.424
 3667WAT     H111108   1.044   3.169   3.402
 3667WAT     H211109   0.972   3.271   3.488
 3668WAT      O11110   1.556   2.680   2.051
 3668WAT     H111111   1.548   2.724   1.966
 3668WAT     H211112   1.628   2.726   2.094
 3669WAT      O11113   1.659   3.366   2.324
 3669WAT     H111114   1.595   3.300   2.351
 3669WAT     H211115   1.620   3.406   2.246
 3670WAT      O11116   1.217   3.099   2.708
 3670WAT     H111117   1.252   3.039   2.642
 3670WAT     H211118   1.129   3.066   2.725
 3671WAT      O11119   0.826   3.175   2.449
 3671WAT     H111120   0.894   3.229   2.487
 3671WAT     H211121   0.747   3.229   2.453
 3672WAT      O11122   0.756   2.875   2.410
 3672WAT     H111123   0.801   2.956   2.433
 3672WAT     H211124   0.721   2.843   2.493
 3673WAT      O11125   0.986   3.426   3.133
 3673WAT     H111126   1.051   3.447   3.201
 3673WAT     H211127   1.022   3.350   3.088
 3674WAT      O11128   0.346   1.910   2.458
 3674WAT     H111129   0.333   1.909   2.552
 3674WAT     H211130   0.264   1.943   2.422
 3675WAT      O11131   1.113   3.227   3.005
 3675WAT     H111132   1.178   3.157   3.016
 3675WAT     H211133   1.166   3.305   2.987
 3676WAT      O11134   1.498   3.255   1.977
 3676WAT     H111135   1.475   3.183   2.037
 3676WAT     H211136   1.459   3.230   1.894
 3677WAT      O11137   1.291   3.307   3.325
 3677WAT     H111138   1.324   3.365   3.393
 3677WAT     H211139   1.199   3.293   3.348
 3678WAT      O11140   1.456   3.047   2.144
 3678WAT     H111141   1.427   3.093   2.222
 3678WAT     H211142   1.536   3.001   2.170
 3679WAT      O11143   0.874   3.311   3.642
 3679WAT     H111144   0.842   3.240   3.697
 3679WAT     H211145   0.806   3.379   3.650
 3680WAT      O11146   0.678   3.396   2.137
 3680WAT     H111147   0.677   3.469   2.075
 3680WAT     H211148   0.586   3.371   2.146
 3681WAT      O11149   0.238   2.918   2.211
 3681WAT     H111150   0.177   2.992   2.212
 3681WAT     H211151   0.285   2.927   2.128
 3682WAT      O11152   1.195   2.335   3.179
 3682WAT     H111153   1.232   2.253   3.211
 3682WAT     H211154   1.109   2.341   3.220
 3683WAT      O11155   1.532   2.230   2.259
 3683WAT     H111156   1.469   2.241   2.188
 3683WAT     H211157   1.482   2.252   2.338
 3684WAT      O11158   0.976   3.402   2.003
 3684WAT     H111159   0.987   3.382   1.910
 3684WAT     H211160   0.886   3.377   2.023
 3685WAT      O11161   0.729   2.458   2.401
 3685WAT     H111162   0.658   2.505   2.445
 3685WAT     H211163   0.757   2.392   2.465
 3686WAT      O11164   0.891   2.600   3.201
 3686WAT     H111165   0.941   2.648   3.268
 3686WAT     H211166   0.906   2.508   3.222
 3687WAT      O11167   1.132   2.131   2.545
 3687WAT     H111168   1.120   2.133   2.450
 3687WAT     H211169   1.227   2.135   2.557
 3688WAT      O11170   0.841   3.654   2.472
 3688WAT     H111171   0.866   3.650   2.380
 3688WAT     H211172   0.746   3.642   2.472
 3689WAT      O11173   0.549   2.289   2.139
 3689WAT     H111174   0.634   2.333   2.132
 3689WAT     H211175   0.512   2.320   2.221
 3690WAT      O11176   1.612   2.222   3.285
 3690WAT     H111177   1.562   2.296   3.319
 3690WAT     H211178   1.694   2.261   3.254
 3691WAT      O11179   1.441   2.746   2.630
 3691WAT     H111180   1.347   2.748   2.647
 3691WAT     H211181   1.473   2.667   2.674
 3692WAT      O11182   0.439   2.914   1.986
 3692WAT     H111183   0.516   2.903   2.042
 3692WAT     H211184   0.447   2.845   1.921
 3693WAT      O11185   0.308   2.658   2.054
 3693WAT     H111186   0.317   2.563   2.065
 3693WAT     H211187   0.398   2.691   2.065
 3694WAT      O11188   1.641   3.463   2.797
 3694WAT     H111189   1.654   3.546   2.845
 3694WAT     H211190   1.728   3.442   2.763
 3695WAT      O11191   0.389   3.673   2.765
 3695WAT     H111192   0.462   3.618   2.792
 3695WAT     H211193   0.427   3.759   2.751
 3696WAT      O11194   0.289   3.591   3.683
 3696WAT     H111195   0.369   3.623   3.725
 3696WAT     H211196   0.238   3.555   3.756
 3697WAT      O11197   0.700   3.590   1.947
 3697WAT     H111198   0.779   3.619   1.902
 3697WAT     H211199   0.648   3.547   1.879
 3698WAT      O11200   1.173   3.202   3.678
 3698WAT     H111201   1.112   3.204   3.604
 3698WAT     H211202   1.142   3.129   3.732
 3699WAT      O11203   1.316   3.575   3.539
 3699WAT     H111204   1.411   3.566   3.534
 3699WAT     H211205   1.301   3.641   3.607
 3700WAT      O11206   1.605   3.513   2.089
 3700WAT     H111207   1.576   3.471   2.008
 3700WAT     H211208   1.585   3.605   2.077
 3701WAT      O11209   0.751   3.112   1.933
 3701WAT     H111210   0.741   3.050   2.006
 3701WAT     H211211   0.735   3.060   1.855
 3702WAT      O11212   0.767   2.980   3.531
 3702WAT     H111213   0.690   3.037   3.523
 3702WAT     H211214   0.785   2.951   3.442
 3703WAT      O11215   1.075   3.018   1.994
 3703WAT     H111216   1.021   3.063   2.058
 3703WAT     H211217   1.138   2.968   2.046
 3704WAT      O11218   1.481   3.153   3.587
 3704WAT     H111219   1.555   3.187   3.537
 3704WAT     H211220   1.405   3.170   3.532
 3705WAT      O11221   0.264   2.654   3.667
 3705WAT     H111222   0.268   2.624   3.758
 3705WAT     H211223   0.350   2.694   3.651
 3706WAT      O11224   0.642   2.914   2.183
 3706WAT     H111225   0.684   2.897   2.268
 3706WAT     H211226   0.655   2.833   2.134
 3707WAT      O11227   0.458   2.512   3.464
 3707WAT     H111228   0.405   2.463   3.401
 3707WAT     H211229   0.525   2.555   3.411
 3708WAT      O11230   0.893   2.816   1.908
 3708WAT     H111231   0.946   2.745   1.872
 3708WAT     H211232   0.958   2.880   1.938
 3709WAT      O11233   1.348   2.959   3.440
 3709WAT     H111234   1.390   2.974   3.525
 3709WAT     H211235   1.255   2.971   3.457
 3710WAT      O11236   1.395   2.693   3.641
 3710WAT     H111237   1.454   2.617   3.632
 3710WAT     H211238   1.413   2.746   3.563
 3711WAT      O11239   0.507   2.209   3.472
 3711WAT     H111240   0.498   2.147   3.400
 3711WAT     H211241   0.449   2.281   3.449
 3712WAT      O11242   0.784   2.064   3.175
 3712WAT     H111243   0.739   2.067   3.091
 3712WAT     H211244   0.720   2.024   3.235
 3713WAT      O11245   0.824   2.954   3.237
 3713WAT     H111246   0.866   3.038   3.220
 3713WAT     H211247   0.732   2.968   3.215
 3714WAT      O11248   1.058   2.727   3.376
 3714WAT     H111249   1.070   2.667   3.450
 3714WAT     H211250   1.144   2.731   3.334
 3715WAT      O11251   0.532   2.521   1.878
 3715WAT     H111252   0.512   2.435   1.914
 3715WAT     H211253   0.515   2.513   1.784
 3716WAT      O11254   0.609   3.584   3.349
 3716WAT     H111255   0.556   3.657   3.317
 3716WAT     H211256   0.635   3.537   3.270
 3717WAT      O11257   0.735   2.381   3.502
 3717WAT     H111258   0.794   2.350   3.570
 3717WAT     H211259   0.653   2.334   3.517
 3718WAT      O11260   1.217   2.343   3.525
 3718WAT     H111261   1.148   2.277   3.518
 3718WAT     H211262   1.289   2.298   3.569
 3719WAT      O11263   1.280   2.002   2.131
 3719WAT     H111264   1.308   1.918   2.166
 3719WAT     H211265   1.202   2.026   2.182
 3720WAT      O11266   0.412   2.231   1.877
 3720WAT     H111267   0.442   2.232   1.786
 3720WAT     H211268   0.486   2.196   1.926
 3721WAT      O11269   0.895   3.708   3.375
 3721WAT     H111270   0.888   3.798   3.406
 3721WAT     H211271   0.805   3.676   3.372
 3722WAT      O11272   0.733   2.126   1.975
 3722WAT     H111273   0.699   2.058   1.917
 3722WAT     H211274   0.754   2.080   2.057
 3723WAT      O11275   0.950   3.624   2.137
 3723WAT     H111276   1.039   3.658   2.139
 3723WAT     H211277   0.953   3.552   2.074
 3724WAT      O11278   0.314   3.162   1.960
 3724WAT     H111279   0.358   3.216   2.026
 3724WAT     H211280   0.362   3.079   1.961
 3725WAT      O11281   0.495   3.274   2.471
 3725WAT     H111282   0.465   3.261   2.561
 3725WAT     H211283   0.484   3.188   2.430
 3726WAT      O11284   1.648   3.478   3.408
 3726WAT     H111285   1.588   3.483   3.333
 3726WAT     H211286   1.661   3.384   3.421
 3727WAT      O11287   1.772   3.252   1.942
 3727WAT     H111288   1.689   3.258   1.989
 3727WAT     H211289   1.790   3.341   1.911
 3728WAT      O11290   1.717   2.926   2.192
 3728WAT     H111291   1.794   2.983   2.202
 3728WAT     H211292   1.719   2.869   2.269
 3729WAT      O11293   1.516   3.150   3.218
 3729WAT     H111294   1.435   3.193   3.244
 3729WAT     H211295   1.557   3.211   3.156
 3730WAT      O11296   1.723   2.956   1.908
 3730WAT     H111297   1.750   3.046   1.895
 3730WAT     H211298   1.704   2.949   2.001
 3731WAT      O11299   1.362   2.258   2.037
 3731WAT     H111300   1.404   2.239   1.953
 3731WAT     H211301   1.332   2.173   2.068
 3732WAT      O11302   1.495   2.186   3.648
 3732WAT     H111303   1.583   2.187   3.686
 3732WAT     H211304   1.496   2.113   3.587
 3733WAT      O11305   0.243   2.405   2.000
 3733WAT     H111306   0.314   2.363   1.952
 3733WAT     H211307   0.172   2.412   1.937
 3734WAT      O11308   0.208   2.011   1.904
 3734WAT     H111309   0.280   2.065   1.936
 3734WAT     H211310   0.235   1.983   1.817
 3735WAT      O11311   1.589   2.498   2.331
 3735WAT     H111312   1.638   2.474   2.409
 3735WAT     H211313   1.569   2.414   2.289
 3736WAT      O11314   0.177   1.936   2.894
 3736WAT     H111315   0.242   1.881   2.850
 3736WAT     H211316   0.219   1.961   2.977
 3737WAT      O11317   1.732   2.361   2.584
 3737WAT     H111318   1.721   2.346   2.678
 3737WAT     H211319   1.808   2.308   2.560
 3738WAT      O11320   1.566   1.955   3.230
 3738WAT     H111321   1.630   2.016   3.267
 3738WAT     H211322   1.581   1.959   3.136
 3739WAT      O11323   1.821   2.144   1.908
 3739WAT     H111324   1.913   2.131   1.887
 3739WAT     H211325   1.818   2.152   2.004
 3740WAT      O11326   1.828   2.221   2.171
 3740WAT     H111327   1.748   2.215   2.224
 3740WAT     H211328   1.848   2.315   2.170
 3741WAT      O11329   1.522   3.625   2.570
 3741WAT     H111330   1.582   3.593   2.503
 3741WAT     H211331   1.548   3.578   2.649
 3742WAT      O11332   0.313   3.268   3.585
 3742WAT     H111333   0.308   3.231   3.673
 3742WAT     H211334   0.326   3.362   3.599
 3743WAT      O11335   0.683   3.424   3.145
 3743WAT     H111336   0.659   3.451   3.057
 3743WAT     H211337   0.777   3.441   3.151
 3744WAT      O11338   0.903   2.070   3.521
 3744WAT     H111339   0.897   2.130   3.596
 3744WAT     H211340   0.997   2.060   3.506
 3745WAT      O11341   1.167   2.036   3.485
 3745WAT     H111342   1.229   2.068   3.419
 3745WAT     H211343   1.222   1.988   3.547
 3746WAT      O11344   1.809   3.626   3.225
 3746WAT     H111345   1.759   3.666   3.154
 3746WAT     H211346   1.748   3.563   3.265
 3747WAT      O11347   0.219   1.904   3.496
 3747WAT     H111348   0.274   1.886   3.420
 3747WAT     H211349   0.226   1.825   3.550
 3748WAT      O11350   0.297   3.563   3.297
 3748WAT     H111351   0.237   3.550   3.371
 3748WAT     H211352   0.296   3.479   3.251
 3749WAT      O11353   1.241   1.892   3.117
 3749WAT     H111354   1.154   1.926   3.097
 3749WAT     H211355   1.230   1.845   3.200
 3750WAT      O11356   1.332   2.113   3.256
 3750WAT     H111357   1.299   2.032   3.218
 3750WAT     H211358   1.427   2.109   3.244
 3751WAT      O11359   1.577   3.690   2.953
 3751WAT     H111360   1.531   3.765   2.916
 3751WAT     H211361   1.514   3.618   2.947
 3752WAT      O11362   0.260   3.300   3.192
 3752WAT     H111363   0.187   3.238   3.185
 3752WAT     H211364   0.266   3.339   3.105
 3753WAT      O11365   0.620   3.521   2.871
 3753WAT     H111366   0.672   3.460   2.818
 3753WAT     H211367   0.685   3.571   2.920
 3754WAT      O11368   0.894   3.610   2.953
 3754WAT     H111369   0.923   3.585   2.866
 3754WAT     H211370   0.945   3.555   3.012
 3755WAT      O11371   1.016   1.984   3.011
 3755WAT     H111372   0.938   2.031   3.039
 3755WAT     H211373   0.987   1.894   3.001
 3756WAT      O11374   1.471   2.054   2.816
 3756WAT     H111375   1.515   2.049   2.731
 3756WAT     H211376   1.444   2.146   2.823
 3757WAT      O11377   1.658   2.017   2.617
 3757WAT     H111378   1.651   1.923   2.602
 3757WAT     H211379   1.735   2.028   2.671
 3758WAT      O11380   0.805   2.226   2.563
 3758WAT     H111381   0.723   2.188   2.528
 3758WAT     H211382   0.855   2.150   2.593
 3759WAT      O11383   1.255   1.892   2.686
 3759WAT     H111384   1.315   1.950   2.734
 3759WAT     H211385   1.181   1.949   2.664
 3760WAT      O11386   1.569   1.933   2.214
 3760WAT     H111387   1.589   2.022   2.240
 3760WAT     H211388   1.490   1.909   2.263
 3761WAT      O11389   0.249   3.501   2.258
 3761WAT     H111390   0.196   3.539   2.187
 3761WAT     H211391   0.241   3.563   2.330
 3762WAT      O11392   0.388   2.067   2.118
 3762WAT     H111393   0.441   1.988   2.105
 3762WAT     H211394   0.451   2.135   2.141
 3763WAT      O11395   0.607   2.041   2.423
 3763WAT     H111396   0.544   1.971   2.440
 3763WAT     H211397   0.553   2.117   2.401
 3764WAT      O11398   0.901   3.702   3.690
 3764WAT     H111399   0.994   3.679   3.694
 3764WAT     H211400   0.899   3.785   3.642
 3765WAT      O11401   1.724   3.657   2.390
 3765WAT     H111402   1.742   3.588   2.325
 3765WAT     H211403   1.655   3.709   2.351
 3766WAT      O11404   0.620   1.969   3.667
 3766WAT     H111405   0.591   2.019   3.590
 3766WAT     H211406   0.658   1.889   3.630
 3767WAT      O11407   0.509   3.695   2.145
 3767WAT     H111408   0.582   3.667   2.090
 3767WAT     H211409   0.535   3.672   2.234
 3768WAT      O11410   0.425   3.307   2.146
 3768WAT     H111411   0.362   3.354   2.201
 3768WAT     H211412   0.436   3.223   2.189
 3769WAT      O11413   1.280   1.910   3.724
 3769WAT     H111414   1.268   1.942   3.814
 3769WAT     H211415   1.361   1.950   3.695
 3770WAT      O11416   1.558   3.625   3.672
 3770WAT     H111417   1.637   3.575   3.652
 3770WAT     H211418   1.587   3.693   3.733
 3771WAT      O11419   1.170   2.712   0.761
 3771WAT     H111420   1.162   2.621   0.734
 3771WAT     H211421   1.129   2.762   0.690
 3772WAT      O11422   0.983   2.890   0.949
 3772WAT     H111423   0.906   2.842   0.978
 3772WAT     H211424   1.049   2.822   0.931
 3773WAT      O11425   0.385   2.921   1.037
 3773WAT     H111426   0.302   2.896   1.076
 3773WAT     H211427   0.446   2.928   1.110
 3774WAT      O11428   1.386   3.331   0.827
 3774WAT     H111429   1.339   3.253   0.860
 3774WAT     H211430   1.467   3.333   0.877
 3775WAT      O11431   0.383   3.325   1.056
 3775WAT     H111432   0.413   3.236   1.038
 3775WAT     H211433   0.458   3.380   1.033
 3776WAT      O11434   1.008   3.559   0.789
 3776WAT     H111435   0.946   3.605   0.732
 3776WAT     H211436   1.094   3.575   0.749
 3777WAT      O11437   0.928   3.158   0.949
 3777WAT     H111438   0.921   3.063   0.933
 3777WAT     H211439   1.004   3.167   1.007
 3778WAT      O11440   1.031   2.438   0.972
 3778WAT     H111441   1.068   2.351   0.961
 3778WAT     H211442   1.021   2.472   0.883
 3779WAT      O11443   0.444   2.276   0.518
 3779WAT     H111444   0.454   2.366   0.549
 3779WAT     H211445   0.353   2.271   0.489
 3780WAT      O11446   1.409   2.188   0.665
 3780WAT     H111447   1.491   2.139   0.670
 3780WAT     H211448   1.412   2.247   0.741
 3781WAT      O11449   0.209   2.468   1.043
 3781WAT     H111450   0.277   2.494   1.105
 3781WAT     H211451   0.177   2.384   1.076
 3782WAT      O11452   0.628   2.572   0.952
 3782WAT     H111453   0.679   2.622   1.016
 3782WAT     H211454   0.681   2.495   0.934
 3783WAT      O11455   1.838   2.389   1.322
 3783WAT     H111456   1.767   2.428   1.270
 3783WAT     H211457   1.864   2.459   1.382
 3784WAT      O11458   0.456   2.036   1.378
 3784WAT     H111459   0.456   2.088   1.298
 3784WAT     H211460   0.373   1.989   1.376
 3785WAT      O11461   1.095   3.048   0.528
 3785WAT     H111462   1.033   3.094   0.472
 3785WAT     H211463   1.146   3.117   0.570
 3786WAT      O11464   0.581   3.000   1.196
 3786WAT     H111465   0.548   3.063   1.260
 3786WAT     H211466   0.599   3.053   1.118
 3787WAT      O11467   1.432   2.382   0.943
 3787WAT     H111468   1.362   2.411   1.001
 3787WAT     H211469   1.469   2.463   0.907
 3788WAT      O11470   0.424   2.207   1.179
 3788WAT     H111471   0.458   2.292   1.149
 3788WAT     H211472   0.330   2.222   1.191
 3789WAT      O11473   0.502   3.197   1.377
 3789WAT     H111474   0.564   3.265   1.349
 3789WAT     H211475   0.416   3.238   1.368
 3790WAT      O11476   1.594   3.344   1.169
 3790WAT     H111477   1.526   3.411   1.168
 3790WAT     H211478   1.648   3.363   1.092
 3791WAT      O11479   1.739   2.326   0.982
 3791WAT     H111480   1.645   2.330   0.995
 3791WAT     H211481   1.772   2.408   1.020
 3792WAT      O11482   0.793   1.956   0.811
 3792WAT     H111483   0.823   1.901   0.740
 3792WAT     H211484   0.700   1.970   0.793
 3793WAT      O11485   1.348   3.528   1.040
 3793WAT     H111486   1.349   3.488   0.954
 3793WAT     H211487   1.292   3.605   1.030
 3794WAT      O11488   1.477   3.200   0.549
 3794WAT     H111489   1.466   3.106   0.562
 3794WAT     H211490   1.477   3.236   0.638
 3795WAT      O11491   1.288   3.018   1.173
 3795WAT     H111492   1.329   2.997   1.090
 3795WAT     H211493   1.360   3.044   1.230
 3796WAT      O11494   1.031   2.763   0.485
 3796WAT     H111495   0.939   2.756   0.508
 3796WAT     H211496   1.047   2.857   0.474
 3797WAT      O11497   1.682   2.858   1.182
 3797WAT     H111498   1.599   2.865   1.135
 3797WAT     H211499   1.742   2.917   1.136
 3798WAT      O11500   1.434   2.919   0.535
 3798WAT     H111501   1.372   2.885   0.471
 3798WAT     H211502   1.433   2.855   0.606
 3799WAT      O11503   1.379   2.537   1.277
 3799WAT     H111504   1.337   2.619   1.302
 3799WAT     H211505   1.305   2.478   1.258
 3800WAT      O11506   0.592   2.815   0.763
 3800WAT     H111507   0.551   2.744   0.714
 3800WAT     H211508   0.601   2.781   0.852
 3801WAT      O11509   0.639   3.184   0.980
 3801WAT     H111510   0.609   3.124   0.912
 3801WAT     H211511   0.734   3.188   0.968
 3802WAT      O11512   0.463   2.493   1.141
 3802WAT     H111513   0.518   2.504   1.064
 3802WAT     H211514   0.515   2.530   1.213
 3803WAT      O11515   1.448   3.541   1.346
 3803WAT     H111516   1.400   3.622   1.327
 3803WAT     H211517   1.379   3.476   1.361
 3804WAT      O11518   0.548   3.158   1.645
 3804WAT     H111519   0.458   3.180   1.669
 3804WAT     H211520   0.550   3.170   1.550
 3805WAT      O11521   1.252   2.843   0.236
 3805WAT     H111522   1.296   2.759   0.221
 3805WAT     H211523   1.323   2.906   0.245
 3806WAT      O11524   0.431   2.845   1.502
 3806WAT     H111525   0.417   2.932   1.539
 3806WAT     H211526   0.342   2.811   1.488
 3807WAT      O11527   1.063   3.337   0.633
 3807WAT     H111528   1.107   3.411   0.591
 3807WAT     H211529   1.057   3.361   0.725
 3808WAT      O11530   0.610   3.439   1.723
 3808WAT     H111531   0.608   3.480   1.636
 3808WAT     H211532   0.594   3.346   1.707
 3809WAT      O11533   0.262   2.705   0.513
 3809WAT     H111534   0.250   2.778   0.452
 3809WAT     H211535   0.231   2.628   0.465
 3810WAT      O11536   1.806   3.518   1.853
 3810WAT     H111537   1.853   3.565   1.921
 3810WAT     H211538   1.868   3.511   1.780
 3811WAT      O11539   1.746   3.237   1.569
 3811WAT     H111540   1.759   3.213   1.477
 3811WAT     H211541   1.750   3.154   1.616
 3812WAT      O11542   1.132   3.607   1.426
 3812WAT     H111543   1.184   3.598   1.506
 3812WAT     H211544   1.048   3.642   1.455
 3813WAT      O11545   1.330   3.636   0.368
 3813WAT     H111546   1.314   3.607   0.458
 3813WAT     H211547   1.313   3.558   0.315
 3814WAT      O11548   0.578   3.613   0.546
 3814WAT     H111549   0.560   3.522   0.525
 3814WAT     H211550   0.492   3.649   0.570
 3815WAT      O11551   1.256   3.549   0.632
 3815WAT     H111552   1.302   3.471   0.663
 3815WAT     H211553   1.290   3.620   0.686
 3816WAT      O11554   1.731   2.442   1.665
 3816WAT     H111555   1.670   2.493   1.612
 3816WAT     H211556   1.699   2.352   1.659
 3817WAT      O11557   0.509   2.039   0.851
 3817WAT     H111558   0.464   2.117   0.818
 3817WAT     H211559   0.564   2.072   0.922
 3818WAT      O11560   0.937   2.326   1.412
 3818WAT     H111561   0.891   2.347   1.493
 3818WAT     H211562   0.897   2.245   1.382
 3819WAT      O11563   1.437   2.448   1.525
 3819WAT     H111564   1.352   2.418   1.557
 3819WAT     H211565   1.421   2.472   1.434
 3820WAT      O11566   1.147   2.598   1.735
 3820WAT     H111567   1.179   2.515   1.701
 3820WAT     H211568   1.226   2.650   1.750
 3821WAT      O11569   0.820   2.001   0.340
 3821WAT     H111570   0.758   2.001   0.412
 3821WAT     H211571   0.811   1.915   0.300
 3822WAT      O11572   0.712   2.094   1.037
 3822WAT     H111573   0.742   2.184   1.029
 3822WAT     H211574   0.767   2.045   0.976
 3823WAT      O11575   0.488   2.552   0.624
 3823WAT     H111576   0.465   2.530   0.715
 3823WAT     H211577   0.410   2.595   0.590
 3824WAT      O11578   1.211   2.552   0.484
 3824WAT     H111579   1.151   2.625   0.466
 3824WAT     H211580   1.266   2.546   0.406
 3825WAT      O11581   0.732   2.641   1.691
 3825WAT     H111582   0.722   2.547   1.676
 3825WAT     H211583   0.816   2.664   1.651
 3826WAT      O11584   1.071   2.416   0.687
 3826WAT     H111585   1.111   2.448   0.606
 3826WAT     H211586   1.108   2.328   0.699
 3827WAT      O11587   0.245   2.283   1.506
 3827WAT     H111588   0.205   2.367   1.527
 3827WAT     H211589   0.176   2.219   1.525
 3828WAT      O11590   0.902   2.291   1.813
 3828WAT     H111591   0.833   2.272   1.877
 3828WAT     H211592   0.977   2.319   1.866
 3829WAT      O11593   1.130   2.675   1.097
 3829WAT     H111594   1.057   2.726   1.132
 3829WAT     H211595   1.090   2.593   1.067
 3830WAT      O11596   0.774   2.342   0.937
 3830WAT     H111597   0.774   2.298   0.852
 3830WAT     H211598   0.863   2.375   0.948
 3831WAT      O11599   0.359   2.331   0.833
 3831WAT     H111600   0.325   2.378   0.909
 3831WAT     H211601   0.282   2.285   0.797
 3832WAT      O11602   0.780   2.443   0.236
 3832WAT     H111603   0.792   2.438   0.331
 3832WAT     H211604   0.741   2.529   0.221
 3833WAT      O11605   1.176   2.220   1.038
 3833WAT     H111606   1.178   2.265   1.122
 3833WAT     H211607   1.151   2.130   1.059
 3834WAT      O11608   1.519   1.962   1.622
 3834WAT     H111609   1.551   1.888   1.674
 3834WAT     H211610   1.522   1.930   1.532
 3835WAT      O11611   0.189   3.064   1.564
 3835WAT     H111612   0.150   3.000   1.624
 3835WAT     H211613   0.220   3.134   1.621
 3836WAT      O11614   0.804   2.748   1.112
 3836WAT     H111615   0.840   2.701   1.187
 3836WAT     H211616   0.785   2.836   1.146
 3837WAT      O11617   0.583   2.653   1.344
 3837WAT     H111618   0.552   2.740   1.366
 3837WAT     H211619   0.678   2.659   1.347
 3838WAT      O11620   0.436   3.073   0.403
 3838WAT     H111621   0.358   3.019   0.387
 3838WAT     H211622   0.509   3.021   0.370
 3839WAT      O11623   1.511   2.973   0.983
 3839WAT     H111624   1.583   3.022   0.944
 3839WAT     H211625   1.491   2.905   0.918
 3840WAT      O11626   1.058   2.112   0.397
 3840WAT     H111627   0.976   2.062   0.389
 3840WAT     H211628   1.038   2.196   0.355
 3841WAT      O11629   1.050   2.980   1.571
 3841WAT     H111630   1.043   2.888   1.546
 3841WAT     H211631   0.987   2.990   1.643
 3842WAT      O11632   1.329   2.549   0.227
 3842WAT     H111633   1.418   2.581   0.209
 3842WAT     H211634   1.326   2.462   0.187
 3843WAT      O11635   0.440   3.040   0.767
 3843WAT     H111636   0.492   2.960   0.762
 3843WAT     H211637   0.395   3.034   0.851
 3844WAT      O11638   0.929   3.167   0.294
 3844WAT     H111639   0.963   3.241   0.245
 3844WAT     H211640   0.846   3.198   0.331
 3845WAT      O11641   0.188   2.737   1.458
 3845WAT     H111642   0.153   2.803   1.517
 3845WAT     H211643   0.159   2.653   1.496
 3846WAT      O11644   0.509   2.782   1.747
 3846WAT     H111645   0.479   2.797   1.657
 3846WAT     H211646   0.586   2.726   1.738
 3847WAT      O11647   1.043   3.262   1.546
 3847WAT     H111648   1.044   3.169   1.525
 3847WAT     H211649   0.972   3.271   1.610
 3848WAT      O11650   1.664   2.926   1.481
 3848WAT     H111651   1.591   2.985   1.461
 3848WAT     H211652   1.717   2.925   1.401
 3849WAT      O11653   1.659   3.366   0.446
 3849WAT     H111654   1.595   3.300   0.474
 3849WAT     H211655   1.620   3.406   0.369
 3850WAT      O11656   1.217   3.099   0.831
 3850WAT     H111657   1.252   3.039   0.765
 3850WAT     H211658   1.129   3.066   0.848
 3851WAT      O11659   0.826   3.175   0.572
 3851WAT     H111660   0.894   3.229   0.610
 3851WAT     H211661   0.747   3.229   0.575
 3852WAT      O11662   0.756   2.875   0.533
 3852WAT     H111663   0.801   2.956   0.555
 3852WAT     H211664   0.721   2.843   0.616
 3853WAT      O11665   0.986   3.426   1.256
 3853WAT     H111666   1.051   3.447   1.324
 3853WAT     H211667   1.022   3.350   1.211
 3854WAT      O11668   0.346   1.910   0.580
 3854WAT     H111669   0.333   1.909   0.675
 3854WAT     H211670   0.264   1.943   0.545
 3855WAT      O11671   1.113   3.227   1.128
 3855WAT     H111672   1.178   3.157   1.139
 3855WAT     H211673   1.166   3.305   1.110
 3856WAT      O11674   1.291   3.307   1.448
 3856WAT     H111675   1.324   3.365   1.516
 3856WAT     H211676   1.199   3.293   1.471
 3857WAT      O11677   1.456   3.047   0.266
 3857WAT     H111678   1.427   3.093   0.345
 3857WAT     H211679   1.536   3.001   0.293
 3858WAT      O11680   0.874   3.311   1.765
 3858WAT     H111681   0.842   3.240   1.819
 3858WAT     H211682   0.806   3.379   1.772
 3859WAT      O11683   0.678   3.396   0.259
 3859WAT     H111684   0.677   3.469   0.198
 3859WAT     H211685   0.586   3.371   0.268
 3860WAT      O11686   0.238   2.918   0.334
 3860WAT     H111687   0.177   2.992   0.335
 3860WAT     H211688   0.285   2.927   0.251
 3861WAT      O11689   1.195   2.335   1.301
 3861WAT     H111690   1.232   2.253   1.334
 3861WAT     H211691   1.109   2.341   1.343
 3862WAT      O11692   1.532   2.230   0.382
 3862WAT     H111693   1.469   2.241   0.311
 3862WAT     H211694   1.482   2.252   0.461
 3863WAT      O11695   0.729   2.458   0.524
 3863WAT     H111696   0.658   2.505   0.568
 3863WAT     H211697   0.757   2.392   0.587
 3864WAT      O11698   0.891   2.600   1.324
 3864WAT     H111699   0.941   2.648   1.390
 3864WAT     H211700   0.906   2.508   1.344
 3865WAT      O11701   1.132   2.131   0.668
 3865WAT     H111702   1.120   2.133   0.573
 3865WAT     H211703   1.227   2.135   0.680
 3866WAT      O11704   0.841   3.654   0.595
 3866WAT     H111705   0.866   3.650   0.503
 3866WAT     H211706   0.746   3.642   0.594
 3867WAT      O11707   0.549   2.289   0.261
 3867WAT     H111708   0.634   2.333   0.255
 3867WAT     H211709   0.512   2.320   0.344
 3868WAT      O11710   1.612   2.222   1.408
 3868WAT     H111711   1.562   2.296   1.442
 3868WAT     H211712   1.694   2.261   1.376
 3869WAT      O11713   1.441   2.746   0.752
 3869WAT     H111714   1.347   2.748   0.770
 3869WAT     H211715   1.473   2.667   0.797
 3870WAT      O11716   0.308   2.658   0.177
 3870WAT     H111717   0.317   2.563   0.188
 3870WAT     H211718   0.398   2.691   0.187
 3871WAT      O11719   1.641   3.463   0.920
 3871WAT     H111720   1.654   3.546   0.967
 3871WAT     H211721   1.728   3.442   0.885
 3872WAT      O11722   0.389   3.673   0.887
 3872WAT     H111723   0.462   3.618   0.914
 3872WAT     H211724   0.427   3.759   0.873
 3873WAT      O11725   0.289   3.591   1.806
 3873WAT     H111726   0.369   3.623   1.847
 3873WAT     H211727   0.238   3.555   1.878
 3874WAT      O11728   1.173   3.202   1.801
 3874WAT     H111729   1.112   3.204   1.727
 3874WAT     H211730   1.142   3.129   1.854
 3875WAT      O11731   1.316   3.575   1.662
 3875WAT     H111732   1.411   3.566   1.657
 3875WAT     H211733   1.301   3.641   1.729
 3876WAT      O11734   0.767   2.980   1.654
 3876WAT     H111735   0.690   3.037   1.645
 3876WAT     H211736   0.785   2.951   1.564
 3877WAT      O11737   1.481   3.153   1.709
 3877WAT     H111738   1.555   3.187   1.659
 3877WAT     H211739   1.405   3.170   1.654
 3878WAT      O11740   0.264   2.654   1.790
 3878WAT     H111741   0.268   2.624   1.881
 3878WAT     H211742   0.350   2.694   1.774
 3879WAT      O11743   0.642   2.914   0.306
 3879WAT     H111744   0.684   2.897   0.390
 3879WAT     H211745   0.655   2.833   0.256
 3880WAT      O11746   0.458   2.512   1.587
 3880WAT     H111747   0.405   2.463   1.524
 3880WAT     H211748   0.525   2.555   1.533
 3881WAT      O11749   1.348   2.959   1.563
 3881WAT     H111750   1.390   2.974   1.648
 3881WAT     H211751   1.255   2.971   1.579
 3882WAT      O11752   1.395   2.693   1.763
 3882WAT     H111753   1.454   2.617   1.755
 3882WAT     H211754   1.413   2.746   1.686
 3883WAT      O11755   0.507   2.209   1.595
 3883WAT     H111756   0.498   2.147   1.522
 3883WAT     H211757   0.449   2.281   1.572
 3884WAT      O11758   0.784   2.064   1.298
 3884WAT     H111759   0.739   2.067   1.213
 3884WAT     H211760   0.720   2.024   1.358
 3885WAT      O11761   0.824   2.954   1.360
 3885WAT     H111762   0.866   3.038   1.343
 3885WAT     H211763   0.732   2.968   1.337
 3886WAT      O11764   1.058   2.727   1.498
 3886WAT     H111765   1.070   2.667   1.572
 3886WAT     H211766   1.144   2.731   1.456
 3887WAT      O11767   1.292   2.782   1.356
 3887WAT     H111768   1.239   2.835   1.296
 3887WAT     H211769   1.326   2.846   1.419
 3888WAT      O11770   0.609   3.584   1.472
 3888WAT     H111771   0.556   3.657   1.440
 3888WAT     H211772   0.635   3.537   1.393
 3889WAT      O11773   0.735   2.381   1.624
 3889WAT     H111774   0.794   2.350   1.693
 3889WAT     H211775   0.653   2.334   1.640
 3890WAT      O11776   1.217   2.343   1.647
 3890WAT     H111777   1.148   2.277   1.641
 3890WAT     H211778   1.289   2.298   1.692
 3891WAT      O11779   1.280   2.002   0.253
 3891WAT     H111780   1.308   1.918   0.289
 3891WAT     H211781   1.202   2.026   0.305
 3892WAT      O11782   0.895   3.708   1.497
 3892WAT     H111783   0.888   3.798   1.528
 3892WAT     H211784   0.805   3.676   1.495
 3893WAT      O11785   0.950   3.624   0.260
 3893WAT     H111786   1.039   3.658   0.262
 3893WAT     H211787   0.953   3.552   0.197
 3894WAT      O11788   0.495   3.274   0.594
 3894WAT     H111789   0.465   3.261   0.684
 3894WAT     H211790   0.484   3.188   0.553
 3895WAT      O11791   1.648   3.478   1.530
 3895WAT     H111792   1.588   3.483   1.456
 3895WAT     H211793   1.661   3.384   1.543
 3896WAT      O11794   1.717   2.926   0.314
 3896WAT     H111795   1.794   2.983   0.325
 3896WAT     H211796   1.719   2.869   0.392
 3897WAT      O11797   1.818   3.012   0.799
 3897WAT     H111798   1.855   2.933   0.758
 3897WAT     H211799   1.882   3.081   0.781
 3898WAT      O11800   1.516   3.150   1.340
 3898WAT     H111801   1.435   3.193   1.366
 3898WAT     H211802   1.557   3.211   1.279
 3899WAT      O11803   1.712   2.749   0.529
 3899WAT     H111804   1.675   2.672   0.486
 3899WAT     H211805   1.639   2.787   0.578
 3900WAT      O11806   1.651   2.664   1.493
 3900WAT     H111807   1.628   2.641   1.403
 3900WAT     H211808   1.677   2.756   1.488
 3901WAT      O11809   1.495   2.186   1.771
 3901WAT     H111810   1.583   2.187   1.809
 3901WAT     H211811   1.496   2.113   1.710
 3902WAT      O11812   1.640   2.572   0.860
 3902WAT     H111813   1.692   2.522   0.796
 3902WAT     H211814   1.698   2.585   0.934
 3903WAT      O11815   1.658   2.580   1.212
 3903WAT     H111816   1.563   2.577   1.223
 3903WAT     H211817   1.676   2.671   1.188
 3904WAT      O11818   1.589   2.498   0.453
 3904WAT     H111819   1.638   2.474   0.532
 3904WAT     H211820   1.569   2.414   0.412
 3905WAT      O11821   0.177   1.936   1.017
 3905WAT     H111822   0.242   1.881   0.973
 3905WAT     H211823   0.219   1.961   1.099
 3906WAT      O11824   1.732   2.361   0.707
 3906WAT     H111825   1.721   2.346   0.801
 3906WAT     H211826   1.808   2.308   0.683
 3907WAT      O11827   1.566   1.955   1.353
 3907WAT     H111828   1.630   2.016   1.389
 3907WAT     H211829   1.581   1.959   1.258
 3908WAT      O11830   1.828   2.221   0.293
 3908WAT     H111831   1.748   2.215   0.346
 3908WAT     H211832   1.848   2.315   0.292
 3909WAT      O11833   1.522   3.625   0.693
 3909WAT     H111834   1.582   3.593   0.625
 3909WAT     H211835   1.548   3.578   0.772
 3910WAT      O11836   0.313   3.268   1.708
 3910WAT     H111837   0.308   3.231   1.796
 3910WAT     H211838   0.326   3.362   1.722
 3911WAT      O11839   0.683   3.424   1.268
 3911WAT     H111840   0.659   3.451   1.179
 3911WAT     H211841   0.777   3.441   1.273
 3912WAT      O11842   0.903   2.070   1.643
 3912WAT     H111843   0.897   2.130   1.718
 3912WAT     H211844   0.997   2.060   1.629
 3913WAT      O11845   1.167   2.036   1.607
 3913WAT     H111846   1.229   2.068   1.541
 3913WAT     H211847   1.222   1.988   1.669
 3914WAT      O11848   1.809   3.626   1.348
 3914WAT     H111849   1.759   3.666   1.276
 3914WAT     H211850   1.748   3.563   1.387
 3915WAT      O11851   0.219   1.904   1.619
 3915WAT     H111852   0.274   1.886   1.542
 3915WAT     H211853   0.226   1.825   1.672
 3916WAT      O11854   0.297   3.563   1.420
 3916WAT     H111855   0.237   3.550   1.494
 3916WAT     H211856   0.296   3.479   1.373
 3917WAT      O11857   1.241   1.892   1.240
 3917WAT     H111858   1.154   1.926   1.220
 3917WAT     H211859   1.230   1.845   1.323
 3918WAT      O11860   1.332   2.113   1.378
 3918WAT     H111861   1.299   2.032   1.340
 3918WAT     H211862   1.427   2.109   1.366
 3919WAT      O11863   1.577   3.690   1.076
 3919WAT     H111864   1.531   3.765   1.038
 3919WAT     H211865   1.514   3.618   1.070
 3920WAT      O11866   0.260   3.300   1.315
 3920WAT     H111867   0.187   3.238   1.308
 3920WAT     H211868   0.266   3.339   1.228
 3921WAT      O11869   0.620   3.521   0.993
 3921WAT     H111870   0.672   3.460   0.941
 3921WAT     H211871   0.685   3.571   1.042
 3922WAT      O11872   0.894   3.610   1.076
 3922WAT     H111873   0.923   3.585   0.988
 3922WAT     H211874   0.945   3.555   1.135
 3923WAT      O11875   1.016   1.984   1.134
 3923WAT     H111876   0.938   2.031   1.162
 3923WAT     H211877   0.987   1.894   1.123
 3924WAT      O11878   1.471   2.054   0.938
 3924WAT     H111879   1.515   2.049   0.854
 3924WAT     H211880   1.444   2.146   0.946
 3925WAT      O11881   1.658   2.017   0.740
 3925WAT     H111882   1.651   1.923   0.725
 3925WAT     H211883   1.735   2.028   0.794
 3926WAT      O11884   0.805   2.226   0.685
 3926WAT     H111885   0.723   2.188   0.651
 3926WAT     H211886   0.855   2.150   0.715
 3927WAT      O11887   1.255   1.892   0.809
 3927WAT     H111888   1.315   1.950   0.856
 3927WAT     H211889   1.181   1.949   0.787
 3928WAT      O11890   1.569   1.933   0.336
 3928WAT     H111891   1.589   2.022   0.363
 3928WAT     H211892   1.490   1.909   0.386
 3929WAT      O11893   0.249   3.501   0.380
 3929WAT     H111894   0.196   3.539   0.310
 3929WAT     H211895   0.241   3.563   0.452
 3930WAT      O11896   0.388   2.067   0.240
 3930WAT     H111897   0.441   1.988   0.227
 3930WAT     H211898   0.451   2.135   0.263
 3931WAT      O11899   0.607   2.041   0.546
 3931WAT     H111900   0.544   1.971   0.562
 3931WAT     H211901   0.553   2.117   0.524
 3932WAT      O11902   0.901   3.702   1.813
 3932WAT     H111903   0.994   3.679   1.817
 3932WAT     H211904   0.899   3.785   1.765
 3933WAT      O11905   1.724   3.657   0.512
 3933WAT     H111906   1.742   3.588   0.448
 3933WAT     H211907   1.655   3.709   0.473
 3934WAT      O11908   0.620   1.969   1.789
 3934WAT     H111909   0.591   2.019   1.713
 3934WAT     H211910   0.658   1.889   1.752
 3935WAT      O11911   0.509   3.695   0.268
 3935WAT     H111912   0.582   3.667   0.213
 3935WAT     H211913   0.535   3.672   0.357
 3936WAT      O11914   0.425   3.307   0.268
 3936WAT     H111915   0.362   3.354   0.323
 3936WAT     H211916   0.436   3.223   0.312
 3937WAT      O11917   1.280   1.910   1.847
 3937WAT     H111918   1.268   1.942   1.936
 3937WAT     H211919   1.361   1.950   1.817
 3938WAT      O11920   1.558   3.625   1.795
 3938WAT     H111921   1.637   3.575   1.774
 3938WAT     H211922   1.587   3.693   1.856
 3939WAT      O11923   1.170   0.835   4.516
 3939WAT     H111924   1.162   0.743   4.488
 3939WAT     H211925   1.129   0.884   4.445
 3940WAT      O11926   0.983   1.013   4.704
 3940WAT     H111927   0.906   0.965   4.733
 3940WAT     H211928   1.049   0.945   4.686
 3941WAT      O11929   0.385   1.044   4.791
 3941WAT     H111930   0.302   1.018   4.831
 3941WAT     H211931   0.446   1.051   4.865
 3942WAT      O11932   1.386   1.453   4.582
 3942WAT     H111933   1.339   1.376   4.614
 3942WAT     H211934   1.467   1.456   4.632
 3943WAT      O11935   0.383   1.447   4.811
 3943WAT     H111936   0.413   1.358   4.793
 3943WAT     H211937   0.458   1.503   4.788
 3944WAT      O11938   1.008   1.682   4.544
 3944WAT     H111939   0.946   1.727   4.487
 3944WAT     H211940   1.094   1.697   4.504
 3945WAT      O11941   0.928   1.280   4.704
 3945WAT     H111942   0.921   1.186   4.688
 3945WAT     H211943   1.004   1.289   4.762
 3946WAT      O11944   1.031   0.561   4.727
 3946WAT     H111945   1.068   0.474   4.716
 3946WAT     H211946   1.021   0.594   4.638
 3947WAT      O11947   0.444   0.398   4.273
 3947WAT     H111948   0.454   0.488   4.304
 3947WAT     H211949   0.353   0.393   4.244
 3948WAT      O11950   1.409   0.310   4.420
 3948WAT     H111951   1.491   0.261   4.425
 3948WAT     H211952   1.412   0.369   4.496
 3949WAT      O11953   0.209   0.590   4.798
 3949WAT     H111954   0.277   0.617   4.860
 3949WAT     H211955   0.177   0.506   4.831
 3950WAT      O11956   0.628   0.695   4.706
 3950WAT     H111957   0.679   0.745   4.770
 3950WAT     H211958   0.681   0.617   4.689
 3951WAT      O11959   1.838   0.512   5.077
 3951WAT     H111960   1.767   0.551   5.025
 3951WAT     H211961   1.864   0.582   5.137
 3952WAT      O11962   1.095   1.170   4.283
 3952WAT     H111963   1.033   1.217   4.227
 3952WAT     H211964   1.146   1.239   4.325
 3953WAT      O11965   0.581   1.123   4.951
 3953WAT     H111966   0.548   1.186   5.015
 3953WAT     H211967   0.599   1.176   4.873
 3954WAT      O11968   1.432   0.504   4.698
 3954WAT     H111969   1.362   0.533   4.756
 3954WAT     H211970   1.469   0.585   4.662
 3955WAT      O11971   0.424   0.330   4.934
 3955WAT     H111972   0.458   0.414   4.904
 3955WAT     H211973   0.330   0.345   4.945
 3956WAT      O11974   0.502   1.320   5.132
 3956WAT     H111975   0.564   1.387   5.104
 3956WAT     H211976   0.416   1.361   5.123
 3957WAT      O11977   1.594   1.466   4.924
 3957WAT     H111978   1.526   1.533   4.923
 3957WAT     H211979   1.648   1.486   4.847
 3958WAT      O11980   1.739   0.449   4.737
 3958WAT     H111981   1.645   0.452   4.750
 3958WAT     H211982   1.772   0.530   4.775
 3959WAT      O11983   1.348   1.651   4.795
 3959WAT     H111984   1.349   1.610   4.709
 3959WAT     H211985   1.292   1.728   4.785
 3960WAT      O11986   1.477   1.323   4.304
 3960WAT     H111987   1.466   1.228   4.317
 3960WAT     H211988   1.477   1.359   4.393
 3961WAT      O11989   1.288   1.141   4.928
 3961WAT     H111990   1.329   1.119   4.845
 3961WAT     H211991   1.360   1.167   4.985
 3962WAT      O11992   1.031   0.885   4.240
 3962WAT     H111993   0.939   0.879   4.263
 3962WAT     H211994   1.047   0.979   4.228
 3963WAT      O11995   1.030   0.513   3.939
 3963WAT     H111996   0.936   0.529   3.948
 3963WAT     H211997   1.062   0.584   3.885
 3964WAT      O11998   1.682   0.981   4.937
 3964WAT     H111999   1.599   0.988   4.890
 3964WAT     H212000   1.742   1.039   4.890
 3965WAT      O12001   1.434   1.042   4.290
 3965WAT     H112002   1.372   1.008   4.225
 3965WAT     H212003   1.433   0.977   4.361
 3966WAT      O12004   1.379   0.659   5.032
 3966WAT     H112005   1.337   0.742   5.057
 3966WAT     H212006   1.305   0.601   5.013
 3967WAT      O12007   0.592   0.938   4.518
 3967WAT     H112008   0.551   0.867   4.468
 3967WAT     H212009   0.601   0.904   4.607
 3968WAT      O12010   0.639   1.307   4.734
 3968WAT     H112011   0.609   1.246   4.666
 3968WAT     H212012   0.734   1.310   4.723
 3969WAT      O12013   0.463   0.615   4.896
 3969WAT     H112014   0.518   0.626   4.819
 3969WAT     H212015   0.515   0.653   4.968
 3970WAT      O12016   1.448   1.664   5.101
 3970WAT     H112017   1.400   1.745   5.081
 3970WAT     H212018   1.379   1.599   5.116
 3971WAT      O12019   0.548   1.280   5.399
 3971WAT     H112020   0.458   1.303   5.424
 3971WAT     H212021   0.550   1.293   5.305
 3972WAT      O12022   1.252   0.965   3.991
 3972WAT     H112023   1.296   0.882   3.976
 3972WAT     H212024   1.323   1.029   4.000
 3973WAT      O12025   0.431   0.968   5.257
 3973WAT     H112026   0.417   1.055   5.294
 3973WAT     H212027   0.342   0.933   5.243
 3974WAT      O12028   1.063   1.459   4.388
 3974WAT     H112029   1.107   1.534   4.346
 3974WAT     H212030   1.057   1.484   4.480
 3975WAT      O12031   0.262   0.827   4.268
 3975WAT     H112032   0.250   0.900   4.207
 3975WAT     H212033   0.231   0.750   4.220
 3976WAT      O12034   1.746   1.359   5.324
 3976WAT     H112035   1.759   1.335   5.232
 3976WAT     H212036   1.750   1.276   5.371
 3977WAT      O12037   1.132   1.730   5.181
 3977WAT     H112038   1.184   1.721   5.261
 3977WAT     H212039   1.048   1.764   5.210
 3978WAT      O12040   1.330   1.758   4.123
 3978WAT     H112041   1.314   1.729   4.213
 3978WAT     H212042   1.313   1.680   4.070
 3979WAT      O12043   0.578   1.736   4.301
 3979WAT     H112044   0.560   1.644   4.280
 3979WAT     H212045   0.492   1.772   4.325
 3980WAT      O12046   1.300   1.509   3.979
 3980WAT     H112047   1.231   1.509   3.913
 3980WAT     H212048   1.374   1.467   3.936
 3981WAT      O12049   1.256   1.672   4.387
 3981WAT     H112050   1.302   1.593   4.418
 3981WAT     H212051   1.290   1.743   4.441
 3982WAT      O12052   1.731   0.565   5.420
 3982WAT     H112053   1.670   0.615   5.367
 3982WAT     H212054   1.699   0.475   5.414
 3983WAT      O12055   0.937   0.448   5.167
 3983WAT     H112056   0.891   0.469   5.248
 3983WAT     H212057   0.897   0.367   5.136
 3984WAT      O12058   1.437   0.571   5.280
 3984WAT     H112059   1.352   0.541   5.312
 3984WAT     H212060   1.421   0.595   5.188
 3985WAT      O12061   0.712   0.216   4.792
 3985WAT     H112062   0.742   0.307   4.784
 3985WAT     H212063   0.767   0.167   4.731
 3986WAT      O12064   0.488   0.674   4.379
 3986WAT     H112065   0.465   0.653   4.470
 3986WAT     H212066   0.410   0.717   4.345
 3987WAT      O12067   1.211   0.675   4.239
 3987WAT     H112068   1.151   0.747   4.221
 3987WAT     H212069   1.266   0.669   4.161
 3988WAT      O12070   1.071   0.538   4.442
 3988WAT     H112071   1.111   0.570   4.361
 3988WAT     H212072   1.108   0.451   4.454
 3989WAT      O12073   0.245   0.405   5.261
 3989WAT     H112074   0.205   0.490   5.282
 3989WAT     H212075   0.176   0.341   5.280
 3990WAT      O12076   1.130   0.797   4.852
 3990WAT     H112077   1.057   0.848   4.886
 3990WAT     H212078   1.090   0.716   4.821
 3991WAT      O12079   0.774   0.465   4.692
 3991WAT     H112080   0.774   0.421   4.607
 3991WAT     H212081   0.863   0.497   4.703
 3992WAT      O12082   0.359   0.453   4.588
 3992WAT     H112083   0.325   0.501   4.664
 3992WAT     H212084   0.282   0.408   4.552
 3993WAT      O12085   0.780   0.565   3.991
 3993WAT     H112086   0.792   0.561   4.086
 3993WAT     H212087   0.741   0.651   3.976
 3994WAT      O12088   1.176   0.343   4.793
 3994WAT     H112089   1.178   0.388   4.877
 3994WAT     H212090   1.151   0.253   4.814
 3995WAT      O12091   0.681   0.796   3.931
 3995WAT     H112092   0.624   0.751   3.868
 3995WAT     H212093   0.752   0.832   3.878
 3996WAT      O12094   0.189   1.186   5.319
 3996WAT     H112095   0.150   1.122   5.379
 3996WAT     H212096   0.220   1.257   5.376
 3997WAT      O12097   0.804   0.871   4.867
 3997WAT     H112098   0.840   0.824   4.941
 3997WAT     H212099   0.785   0.958   4.901
 3998WAT      O12100   0.583   0.775   5.099
 3998WAT     H112101   0.552   0.863   5.121
 3998WAT     H212102   0.678   0.781   5.102
 3999WAT      O12103   0.436   1.196   4.158
 3999WAT     H112104   0.358   1.142   4.142
 3999WAT     H212105   0.509   1.144   4.124
 4000WAT      O12106   1.511   1.095   4.738
 4000WAT     H112107   1.583   1.145   4.698
 4000WAT     H212108   1.491   1.028   4.673
 4001WAT      O12109   1.058   0.235   4.152
 4001WAT     H112110   0.976   0.185   4.144
 4001WAT     H212111   1.038   0.319   4.110
 4002WAT      O12112   1.050   1.102   5.326
 4002WAT     H112113   1.043   1.010   5.301
 4002WAT     H212114   0.987   1.112   5.398
 4003WAT      O12115   1.329   0.672   3.981
 4003WAT     H112116   1.418   0.703   3.964
 4003WAT     H212117   1.326   0.585   3.942
 4004WAT      O12118   0.440   1.163   4.522
 4004WAT     H112119   0.492   1.082   4.517
 4004WAT     H212120   0.395   1.156   4.606
 4005WAT      O12121   0.929   1.289   4.049
 4005WAT     H112122   0.963   1.364   4.000
 4005WAT     H212123   0.846   1.320   4.086
 4006WAT      O12124   0.188   0.859   5.213
 4006WAT     H112125   0.153   0.926   5.272
 4006WAT     H212126   0.159   0.776   5.250
 4007WAT      O12127   1.043   1.385   5.301
 4007WAT     H112128   1.044   1.291   5.279
 4007WAT     H212129   0.972   1.393   5.365
 4008WAT      O12130   1.556   0.803   3.928
 4008WAT     H112131   1.548   0.846   3.843
 4008WAT     H212132   1.628   0.849   3.972
 4009WAT      O12133   1.664   1.049   5.236
 4009WAT     H112134   1.591   1.108   5.216
 4009WAT     H212135   1.717   1.048   5.156
 4010WAT      O12136   1.659   1.488   4.201
 4010WAT     H112137   1.595   1.423   4.229
 4010WAT     H212138   1.620   1.529   4.123
 4011WAT      O12139   1.217   1.221   4.586
 4011WAT     H112140   1.252   1.162   4.520
 4011WAT     H212141   1.129   1.189   4.603
 4012WAT      O12142   0.826   1.297   4.326
 4012WAT     H112143   0.894   1.352   4.365
 4012WAT     H212144   0.747   1.352   4.330
 4013WAT      O12145   0.756   0.998   4.288
 4013WAT     H112146   0.801   1.079   4.310
 4013WAT     H212147   0.721   0.966   4.371
 4014WAT      O12148   0.986   1.549   5.011
 4014WAT     H112149   1.051   1.569   5.078
 4014WAT     H212150   1.022   1.473   4.965
 4015WAT      O12151   1.113   1.349   4.882
 4015WAT     H112152   1.178   1.279   4.894
 4015WAT     H212153   1.166   1.427   4.864
 4016WAT      O12154   1.498   1.378   3.855
 4016WAT     H112155   1.475   1.306   3.914
 4016WAT     H212156   1.459   1.353   3.771
 4017WAT      O12157   1.291   1.429   5.203
 4017WAT     H112158   1.324   1.488   5.271
 4017WAT     H212159   1.199   1.416   5.226
 4018WAT      O12160   1.456   1.169   4.021
 4018WAT     H112161   1.427   1.215   4.100
 4018WAT     H212162   1.536   1.123   4.048
 4019WAT      O12163   0.678   1.519   4.014
 4019WAT     H112164   0.677   1.592   3.952
 4019WAT     H212165   0.586   1.494   4.023
 4020WAT      O12166   0.238   1.041   4.088
 4020WAT     H112167   0.177   1.115   4.089
 4020WAT     H212168   0.285   1.050   4.006
 4021WAT      O12169   1.195   0.457   5.056
 4021WAT     H112170   1.232   0.375   5.089
 4021WAT     H212171   1.109   0.463   5.098
 4022WAT      O12172   1.532   0.353   4.137
 4022WAT     H112173   1.469   0.363   4.066
 4022WAT     H212174   1.482   0.375   4.216
 4023WAT      O12175   0.976   1.525   3.880
 4023WAT     H112176   0.987   1.505   3.787
 4023WAT     H212177   0.886   1.499   3.901
 4024WAT      O12178   0.729   0.581   4.279
 4024WAT     H112179   0.658   0.628   4.323
 4024WAT     H212180   0.757   0.515   4.342
 4025WAT      O12181   0.891   0.723   5.078
 4025WAT     H112182   0.941   0.770   5.145
 4025WAT     H212183   0.906   0.630   5.099
 4026WAT      O12184   1.132   0.253   4.422
 4026WAT     H112185   1.120   0.255   4.328
 4026WAT     H212186   1.227   0.258   4.434
 4027WAT      O12187   0.841   1.777   4.350
 4027WAT     H112188   0.866   1.773   4.258
 4027WAT     H212189   0.746   1.764   4.349
 4028WAT      O12190   0.549   0.412   4.016
 4028WAT     H112191   0.634   0.455   4.009
 4028WAT     H212192   0.512   0.443   4.099
 4029WAT      O12193   1.612   0.344   5.163
 4029WAT     H112194   1.562   0.418   5.197
 4029WAT     H212195   1.694   0.383   5.131
 4030WAT      O12196   1.441   0.869   4.507
 4030WAT     H112197   1.347   0.870   4.525
 4030WAT     H212198   1.473   0.790   4.552
 4031WAT      O12199   0.439   1.037   3.863
 4031WAT     H112200   0.516   1.026   3.920
 4031WAT     H212201   0.447   0.967   3.798
 4032WAT      O12202   0.308   0.780   3.932
 4032WAT     H112203   0.317   0.685   3.943
 4032WAT     H212204   0.398   0.813   3.942
 4033WAT      O12205   1.641   1.586   4.675
 4033WAT     H112206   1.654   1.668   4.722
 4033WAT     H212207   1.728   1.565   4.640
 4034WAT      O12208   0.389   1.795   4.642
 4034WAT     H112209   0.462   1.740   4.669
 4034WAT     H212210   0.427   1.882   4.628
 4035WAT      O12211   0.700   1.712   3.824
 4035WAT     H112212   0.779   1.741   3.779
 4035WAT     H212213   0.648   1.669   3.756
 4036WAT      O12214   1.605   1.635   3.967
 4036WAT     H112215   1.576   1.594   3.885
 4036WAT     H212216   1.585   1.728   3.955
 4037WAT      O12217   0.751   1.234   3.811
 4037WAT     H112218   0.741   1.173   3.883
 4037WAT     H212219   0.735   1.182   3.732
 4038WAT      O12220   0.767   1.103   5.409
 4038WAT     H112221   0.690   1.160   5.400
 4038WAT     H212222   0.785   1.074   5.319
 4039WAT      O12223   1.075   1.141   3.871
 4039WAT     H112224   1.021   1.185   3.936
 4039WAT     H212225   1.138   1.090   3.924
 4040WAT      O12226   0.642   1.037   4.061
 4040WAT     H112227   0.684   1.020   4.145
 4040WAT     H212228   0.655   0.956   4.011
 4041WAT      O12229   0.458   0.635   5.342
 4041WAT     H112230   0.405   0.585   5.279
 4041WAT     H212231   0.525   0.677   5.288
 4042WAT      O12232   0.893   0.939   3.786
 4042WAT     H112233   0.946   0.867   3.749
 4042WAT     H212234   0.958   1.003   3.816
 4043WAT      O12235   1.348   1.081   5.318
 4043WAT     H112236   1.390   1.097   5.403
 4043WAT     H212237   1.255   1.094   5.334
 4044WAT      O12238   0.507   0.331   5.349
 4044WAT     H112239   0.498   0.269   5.277
 4044WAT     H212240   0.449   0.404   5.327
 4045WAT      O12241   0.824   1.076   5.115
 4045WAT     H112242   0.866   1.161   5.098
 4045WAT     H212243   0.732   1.090   5.092
 4046WAT      O12244   1.058   0.850   5.253
 4046WAT     H112245   1.070   0.790   5.327
 4046WAT     H212246   1.144   0.853   5.211
 4047WAT      O12247   1.292   0.905   5.111
 4047WAT     H112248   1.239   0.957   5.051
 4047WAT     H212249   1.326   0.968   5.174
 4048WAT      O12250   0.532   0.644   3.755
 4048WAT     H112251   0.512   0.558   3.792
 4048WAT     H212252   0.515   0.635   3.662
 4049WAT      O12253   0.609   1.707   5.226
 4049WAT     H112254   0.556   1.779   5.195
 4049WAT     H212255   0.635   1.659   5.147
 4050WAT      O12256   0.412   0.354   3.754
 4050WAT     H112257   0.442   0.355   3.663
 4050WAT     H212258   0.486   0.319   3.804
 4051WAT      O12259   0.895   1.830   5.252
 4051WAT     H112260   0.888   1.921   5.283
 4051WAT     H212261   0.805   1.799   5.250
 4052WAT      O12262   0.733   0.248   3.853
 4052WAT     H112263   0.699   0.180   3.795
 4052WAT     H212264   0.754   0.202   3.934
 4053WAT      O12265   0.950   1.747   4.015
 4053WAT     H112266   1.039   1.781   4.017
 4053WAT     H212267   0.953   1.675   3.952
 4054WAT      O12268   0.314   1.284   3.837
 4054WAT     H112269   0.358   1.339   3.903
 4054WAT     H212270   0.362   1.202   3.838
 4055WAT      O12271   0.495   1.396   4.349
 4055WAT     H112272   0.465   1.384   4.439
 4055WAT     H212273   0.484   1.310   4.308
 4056WAT      O12274   1.648   1.600   5.285
 4056WAT     H112275   1.588   1.606   5.211
 4056WAT     H212276   1.661   1.506   5.298
 4057WAT      O12277   1.772   1.374   3.819
 4057WAT     H112278   1.689   1.381   3.866
 4057WAT     H212279   1.790   1.463   3.789
 4058WAT      O12280   1.717   1.049   4.069
 4058WAT     H112281   1.794   1.106   4.080
 4058WAT     H212282   1.719   0.992   4.146
 4059WAT      O12283   1.818   1.134   4.554
 4059WAT     H112284   1.855   1.056   4.513
 4059WAT     H212285   1.882   1.203   4.536
 4060WAT      O12286   1.516   1.273   5.095
 4060WAT     H112287   1.435   1.316   5.121
 4060WAT     H212288   1.557   1.334   5.034
 4061WAT      O12289   1.723   1.078   3.785
 4061WAT     H112290   1.750   1.169   3.772
 4061WAT     H212291   1.704   1.072   3.879
 4062WAT      O12292   1.362   0.381   3.915
 4062WAT     H112293   1.404   0.362   3.831
 4062WAT     H212294   1.332   0.295   3.946
 4063WAT      O12295   1.712   0.872   4.284
 4063WAT     H112296   1.675   0.795   4.241
 4063WAT     H212297   1.639   0.910   4.333
 4064WAT      O12298   1.651   0.786   5.248
 4064WAT     H112299   1.628   0.764   5.158
 4064WAT     H212300   1.677   0.878   5.243
 4065WAT      O12301   1.640   0.694   4.614
 4065WAT     H112302   1.692   0.645   4.551
 4065WAT     H212303   1.698   0.708   4.689
 4066WAT      O12304   1.658   0.703   4.967
 4066WAT     H112305   1.563   0.699   4.978
 4066WAT     H212306   1.676   0.794   4.943
 4067WAT      O12307   0.243   0.528   3.878
 4067WAT     H112308   0.314   0.486   3.829
 4067WAT     H212309   0.172   0.535   3.814
 4068WAT      O12310   1.589   0.620   4.208
 4068WAT     H112311   1.638   0.597   4.287
 4068WAT     H212312   1.569   0.536   4.167
 4069WAT      O12313   1.732   0.484   4.462
 4069WAT     H112314   1.721   0.468   4.556
 4069WAT     H212315   1.808   0.431   4.437
 4070WAT      O12316   1.821   0.267   3.786
 4070WAT     H112317   1.913   0.254   3.765
 4070WAT     H212318   1.818   0.275   3.881
 4071WAT      O12319   1.828   0.344   4.048
 4071WAT     H112320   1.748   0.337   4.101
 4071WAT     H212321   1.848   0.437   4.047
 4072WAT      O12322   1.522   1.748   4.448
 4072WAT     H112323   1.582   1.716   4.380
 4072WAT     H212324   1.548   1.700   4.527
 4073WAT      O12325   0.683   1.547   5.023
 4073WAT     H112326   0.659   1.573   4.934
 4073WAT     H212327   0.777   1.564   5.028
 4074WAT      O12328   1.809   1.748   5.103
 4074WAT     H112329   1.759   1.788   5.031
 4074WAT     H212330   1.748   1.686   5.142
 4075WAT      O12331   0.297   1.686   5.175
 4075WAT     H112332   0.237   1.672   5.248
 4075WAT     H212333   0.296   1.602   5.128
 4076WAT      O12334   1.577   1.813   4.831
 4076WAT     H112335   1.531   1.888   4.793
 4076WAT     H212336   1.514   1.741   4.825
 4077WAT      O12337   0.260   1.422   5.070
 4077WAT     H112338   0.187   1.360   5.063
 4077WAT     H212339   0.266   1.462   4.983
 4078WAT      O12340   0.620   1.644   4.748
 4078WAT     H112341   0.672   1.582   4.696
 4078WAT     H212342   0.685   1.694   4.797
 4079WAT      O12343   0.894   1.733   4.831
 4079WAT     H112344   0.923   1.707   4.743
 4079WAT     H212345   0.945   1.677   4.890
 4080WAT      O12346   1.471   0.177   4.693
 4080WAT     H112347   1.515   0.171   4.609
 4080WAT     H212348   1.444   0.268   4.700
 4081WAT      O12349   0.805   0.348   4.440
 4081WAT     H112350   0.723   0.311   4.406
 4081WAT     H212351   0.855   0.273   4.470
 4082WAT      O12352   0.249   1.623   4.135
 4082WAT     H112353   0.196   1.661   4.065
 4082WAT     H212354   0.241   1.686   4.207
 4083WAT      O12355   1.724   1.779   4.267
 4083WAT     H112356   1.742   1.710   4.203
 4083WAT     H212357   1.655   1.832   4.228
 4084WAT      O12358   0.509   1.818   4.023
 4084WAT     H112359   0.582   1.790   3.968
 4084WAT     H212360   0.535   1.794   4.112
 4085WAT      O12361   0.425   1.430   4.023
 4085WAT     H112362   0.362   1.477   4.078
 4085WAT     H212363   0.436   1.345   4.067
 4086WAT      O12364   1.170   0.835   2.638
 4086WAT     H112365   1.162   0.743   2.611
 4086WAT     H212366   1.129   0.884   2.567
 4087WAT      O12367   0.983   1.013   2.826
 4087WAT     H112368   0.906   0.965   2.855
 4087WAT     H212369   1.049   0.945   2.809
 4088WAT      O12370   0.385   1.044   2.914
 4088WAT     H112371   0.302   1.018   2.954
 4088WAT     H212372   0.446   1.051   2.988
 4089WAT      O12373   1.386   1.453   2.704
 4089WAT     H112374   1.339   1.376   2.737
 4089WAT     H212375   1.467   1.456   2.755
 4090WAT      O12376   0.383   1.447   2.934
 4090WAT     H112377   0.413   1.358   2.916
 4090WAT     H212378   0.458   1.503   2.911
 4091WAT      O12379   1.008   1.682   2.666
 4091WAT     H112380   0.946   1.727   2.609
 4091WAT     H212381   1.094   1.697   2.626
 4092WAT      O12382   0.928   1.280   2.827
 4092WAT     H112383   0.921   1.186   2.811
 4092WAT     H212384   1.004   1.289   2.884
 4093WAT      O12385   1.031   0.561   2.850
 4093WAT     H112386   1.068   0.474   2.838
 4093WAT     H212387   1.021   0.594   2.760
 4094WAT      O12388   0.444   0.398   2.396
 4094WAT     H112389   0.454   0.488   2.426
 4094WAT     H212390   0.353   0.393   2.367
 4095WAT      O12391   1.409   0.310   2.543
 4095WAT     H112392   1.491   0.261   2.547
 4095WAT     H212393   1.412   0.369   2.618
 4096WAT      O12394   0.209   0.590   2.920
 4096WAT     H112395   0.277   0.617   2.982
 4096WAT     H212396   0.177   0.506   2.954
 4097WAT      O12397   0.628   0.695   2.829
 4097WAT     H112398   0.679   0.745   2.893
 4097WAT     H212399   0.681   0.617   2.811
 4098WAT      O12400   1.838   0.512   3.199
 4098WAT     H112401   1.767   0.551   3.147
 4098WAT     H212402   1.864   0.582   3.260
 4099WAT      O12403   1.095   1.170   2.406
 4099WAT     H112404   1.033   1.217   2.349
 4099WAT     H212405   1.146   1.239   2.447
 4100WAT      O12406   0.581   1.123   3.073
 4100WAT     H112407   0.548   1.186   3.138
 4100WAT     H212408   0.599   1.176   2.995
 4101WAT      O12409   1.432   0.504   2.820
 4101WAT     H112410   1.362   0.533   2.878
 4101WAT     H212411   1.469   0.585   2.784
 4102WAT      O12412   0.424   0.330   3.056
 4102WAT     H112413   0.458   0.414   3.027
 4102WAT     H212414   0.330   0.345   3.068
 4103WAT      O12415   0.502   1.320   3.255
 4103WAT     H112416   0.564   1.387   3.227
 4103WAT     H212417   0.416   1.361   3.246
 4104WAT      O12418   1.594   1.466   3.046
 4104WAT     H112419   1.526   1.533   3.046
 4104WAT     H212420   1.648   1.486   2.970
 4105WAT      O12421   1.739   0.449   2.859
 4105WAT     H112422   1.645   0.452   2.872
 4105WAT     H212423   1.772   0.530   2.898
 4106WAT      O12424   1.348   1.651   2.918
 4106WAT     H112425   1.349   1.610   2.831
 4106WAT     H212426   1.292   1.728   2.907
 4107WAT      O12427   1.477   1.323   2.427
 4107WAT     H112428   1.466   1.228   2.439
 4107WAT     H212429   1.477   1.359   2.515
 4108WAT      O12430   1.288   1.141   3.051
 4108WAT     H112431   1.329   1.119   2.967
 4108WAT     H212432   1.360   1.167   3.108
 4109WAT      O12433   1.031   0.885   2.362
 4109WAT     H112434   0.939   0.879   2.385
 4109WAT     H212435   1.047   0.979   2.351
 4110WAT      O12436   1.030   0.513   2.062
 4110WAT     H112437   0.936   0.529   2.071
 4110WAT     H212438   1.062   0.584   2.007
 4111WAT      O12439   1.682   0.981   3.060
 4111WAT     H112440   1.599   0.988   3.012
 4111WAT     H212441   1.742   1.039   3.013
 4112WAT      O12442   1.434   1.042   2.413
 4112WAT     H112443   1.372   1.008   2.348
 4112WAT     H212444   1.433   0.977   2.484
 4113WAT      O12445   1.379   0.659   3.154
 4113WAT     H112446   1.337   0.742   3.180
 4113WAT     H212447   1.305   0.601   3.135
 4114WAT      O12448   0.592   0.938   2.641
 4114WAT     H112449   0.551   0.867   2.591
 4114WAT     H212450   0.601   0.904   2.729
 4115WAT      O12451   0.639   1.307   2.857
 4115WAT     H112452   0.609   1.246   2.789
 4115WAT     H212453   0.734   1.310   2.846
 4116WAT      O12454   0.463   0.615   3.019
 4116WAT     H112455   0.518   0.626   2.941
 4116WAT     H212456   0.515   0.653   3.090
 4117WAT      O12457   1.448   1.664   3.223
 4117WAT     H112458   1.400   1.745   3.204
 4117WAT     H212459   1.379   1.599   3.238
 4118WAT      O12460   0.548   1.280   3.522
 4118WAT     H112461   0.458   1.303   3.547
 4118WAT     H212462   0.550   1.293   3.427
 4119WAT      O12463   1.252   0.965   2.113
 4119WAT     H112464   1.296   0.882   2.099
 4119WAT     H212465   1.323   1.029   2.122
 4120WAT      O12466   0.431   0.968   3.380
 4120WAT     H112467   0.417   1.055   3.417
 4120WAT     H212468   0.342   0.933   3.365
 4121WAT      O12469   1.063   1.459   2.510
 4121WAT     H112470   1.107   1.534   2.469
 4121WAT     H212471   1.057   1.484   2.603
 4122WAT      O12472   0.610   1.562   3.600
 4122WAT     H112473   0.608   1.602   3.514
 4122WAT     H212474   0.594   1.469   3.584
 4123WAT      O12475   0.262   0.827   2.391
 4123WAT     H112476   0.250   0.900   2.329
 4123WAT     H212477   0.231   0.750   2.343
 4124WAT      O12478   1.806   1.640   3.730
 4124WAT     H112479   1.853   1.688   3.798
 4124WAT     H212480   1.868   1.633   3.658
 4125WAT      O12481   1.746   1.359   3.446
 4125WAT     H112482   1.759   1.335   3.354
 4125WAT     H212483   1.750   1.276   3.493
 4126WAT      O12484   1.132   1.730   3.303
 4126WAT     H112485   1.184   1.721   3.383
 4126WAT     H212486   1.048   1.764   3.332
 4127WAT      O12487   1.330   1.758   2.246
 4127WAT     H112488   1.314   1.729   2.336
 4127WAT     H212489   1.313   1.680   2.192
 4128WAT      O12490   0.578   1.736   2.424
 4128WAT     H112491   0.560   1.644   2.402
 4128WAT     H212492   0.492   1.772   2.448
 4129WAT      O12493   1.300   1.509   2.102
 4129WAT     H112494   1.231   1.509   2.036
 4129WAT     H212495   1.374   1.467   2.059
 4130WAT      O12496   1.256   1.672   2.509
 4130WAT     H112497   1.302   1.593   2.541
 4130WAT     H212498   1.290   1.743   2.564
 4131WAT      O12499   1.731   0.565   3.543
 4131WAT     H112500   1.670   0.615   3.490
 4131WAT     H212501   1.699   0.475   3.537
 4132WAT      O12502   0.937   0.448   3.289
 4132WAT     H112503   0.891   0.469   3.370
 4132WAT     H212504   0.897   0.367   3.259
 4133WAT      O12505   1.437   0.571   3.402
 4133WAT     H112506   1.352   0.541   3.434
 4133WAT     H212507   1.421   0.595   3.311
 4134WAT      O12508   1.147   0.721   3.612
 4134WAT     H112509   1.179   0.637   3.578
 4134WAT     H212510   1.226   0.773   3.627
 4135WAT      O12511   0.712   0.216   2.915
 4135WAT     H112512   0.742   0.307   2.907
 4135WAT     H212513   0.767   0.167   2.853
 4136WAT      O12514   0.488   0.674   2.502
 4136WAT     H112515   0.465   0.653   2.592
 4136WAT     H212516   0.410   0.717   2.467
 4137WAT      O12517   1.211   0.675   2.362
 4137WAT     H112518   1.151   0.747   2.343
 4137WAT     H212519   1.266   0.669   2.283
 4138WAT      O12520   0.732   0.764   3.568
 4138WAT     H112521   0.722   0.670   3.553
 4138WAT     H212522   0.816   0.786   3.529
 4139WAT      O12523   1.071   0.538   2.565
 4139WAT     H112524   1.111   0.570   2.483
 4139WAT     H212525   1.108   0.451   2.576
 4140WAT      O12526   0.245   0.405   3.384
 4140WAT     H112527   0.205   0.490   3.404
 4140WAT     H212528   0.176   0.341   3.403
 4141WAT      O12529   0.902   0.413   3.691
 4141WAT     H112530   0.833   0.394   3.754
 4141WAT     H212531   0.977   0.442   3.744
 4142WAT      O12532   1.130   0.797   2.974
 4142WAT     H112533   1.057   0.848   3.009
 4142WAT     H212534   1.090   0.716   2.944
 4143WAT      O12535   0.774   0.465   2.815
 4143WAT     H112536   0.774   0.421   2.730
 4143WAT     H212537   0.863   0.497   2.825
 4144WAT      O12538   0.359   0.453   2.711
 4144WAT     H112539   0.325   0.501   2.786
 4144WAT     H212540   0.282   0.408   2.675
 4145WAT      O12541   0.780   0.565   2.114
 4145WAT     H112542   0.792   0.561   2.209
 4145WAT     H212543   0.741   0.651   2.098
 4146WAT      O12544   1.176   0.343   2.915
 4146WAT     H112545   1.178   0.388   3.000
 4146WAT     H212546   1.151   0.253   2.937
 4147WAT      O12547   0.681   0.796   2.054
 4147WAT     H112548   0.624   0.751   1.991
 4147WAT     H212549   0.752   0.832   2.000
 4148WAT      O12550   0.189   1.186   3.441
 4148WAT     H112551   0.150   1.122   3.501
 4148WAT     H212552   0.220   1.257   3.498
 4149WAT      O12553   0.804   0.871   2.989
 4149WAT     H112554   0.840   0.824   3.064
 4149WAT     H212555   0.785   0.958   3.023
 4150WAT      O12556   0.583   0.775   3.221
 4150WAT     H112557   0.552   0.863   3.244
 4150WAT     H212558   0.678   0.781   3.225
 4151WAT      O12559   0.436   1.196   2.281
 4151WAT     H112560   0.358   1.142   2.265
 4151WAT     H212561   0.509   1.144   2.247
 4152WAT      O12562   1.511   1.095   2.860
 4152WAT     H112563   1.583   1.145   2.821
 4152WAT     H212564   1.491   1.028   2.796
 4153WAT      O12565   1.058   0.235   2.274
 4153WAT     H112566   0.976   0.185   2.267
 4153WAT     H212567   1.038   0.319   2.233
 4154WAT      O12568   1.050   1.102   3.449
 4154WAT     H112569   1.043   1.010   3.423
 4154WAT     H212570   0.987   1.112   3.520
 4155WAT      O12571   1.329   0.672   2.104
 4155WAT     H112572   1.418   0.703   2.087
 4155WAT     H212573   1.326   0.585   2.065
 4156WAT      O12574   0.440   1.163   2.645
 4156WAT     H112575   0.492   1.082   2.639
 4156WAT     H212576   0.395   1.156   2.729
 4157WAT      O12577   0.929   1.289   2.172
 4157WAT     H112578   0.963   1.364   2.122
 4157WAT     H212579   0.846   1.320   2.208
 4158WAT      O12580   0.188   0.859   3.336
 4158WAT     H112581   0.153   0.926   3.395
 4158WAT     H212582   0.159   0.776   3.373
 4159WAT      O12583   0.509   0.905   3.624
 4159WAT     H112584   0.479   0.920   3.535
 4159WAT     H212585   0.586   0.849   3.615
 4160WAT      O12586   1.043   1.385   3.424
 4160WAT     H112587   1.044   1.291   3.402
 4160WAT     H212588   0.972   1.393   3.488
 4161WAT      O12589   1.556   0.803   2.051
 4161WAT     H112590   1.548   0.846   1.966
 4161WAT     H212591   1.628   0.849   2.094
 4162WAT      O12592   1.664   1.049   3.359
 4162WAT     H112593   1.591   1.108   3.339
 4162WAT     H212594   1.717   1.048   3.279
 4163WAT      O12595   1.659   1.488   2.324
 4163WAT     H112596   1.595   1.423   2.351
 4163WAT     H212597   1.620   1.529   2.246
 4164WAT      O12598   1.217   1.221   2.708
 4164WAT     H112599   1.252   1.162   2.642
 4164WAT     H212600   1.129   1.189   2.725
 4165WAT      O12601   0.826   1.297   2.449
 4165WAT     H112602   0.894   1.352   2.487
 4165WAT     H212603   0.747   1.352   2.453
 4166WAT      O12604   0.756   0.998   2.410
 4166WAT     H112605   0.801   1.079   2.433
 4166WAT     H212606   0.721   0.966   2.493
 4167WAT      O12607   0.986   1.549   3.133
 4167WAT     H112608   1.051   1.569   3.201
 4167WAT     H212609   1.022   1.473   3.088
 4168WAT      O12610   1.113   1.349   3.005
 4168WAT     H112611   1.178   1.279   3.016
 4168WAT     H212612   1.166   1.427   2.987
 4169WAT      O12613   1.498   1.378   1.977
 4169WAT     H112614   1.475   1.306   2.037
 4169WAT     H212615   1.459   1.353   1.894
 4170WAT      O12616   1.291   1.429   3.325
 4170WAT     H112617   1.324   1.488   3.393
 4170WAT     H212618   1.199   1.416   3.348
 4171WAT      O12619   1.456   1.169   2.144
 4171WAT     H112620   1.427   1.215   2.222
 4171WAT     H212621   1.536   1.123   2.170
 4172WAT      O12622   0.874   1.434   3.642
 4172WAT     H112623   0.842   1.362   3.697
 4172WAT     H212624   0.806   1.502   3.650
 4173WAT      O12625   0.678   1.519   2.137
 4173WAT     H112626   0.677   1.592   2.075
 4173WAT     H212627   0.586   1.494   2.146
 4174WAT      O12628   0.238   1.041   2.211
 4174WAT     H112629   0.177   1.115   2.212
 4174WAT     H212630   0.285   1.050   2.128
 4175WAT      O12631   1.195   0.457   3.179
 4175WAT     H112632   1.232   0.375   3.211
 4175WAT     H212633   1.109   0.463   3.220
 4176WAT      O12634   1.532   0.353   2.259
 4176WAT     H112635   1.469   0.363   2.188
 4176WAT     H212636   1.482   0.375   2.338
 4177WAT      O12637   0.976   1.525   2.003
 4177WAT     H112638   0.987   1.505   1.910
 4177WAT     H212639   0.886   1.499   2.023
 4178WAT      O12640   0.729   0.581   2.401
 4178WAT     H112641   0.658   0.628   2.445
 4178WAT     H212642   0.757   0.515   2.465
 4179WAT      O12643   0.891   0.723   3.201
 4179WAT     H112644   0.941   0.770   3.268
 4179WAT     H212645   0.906   0.630   3.222
 4180WAT      O12646   1.132   0.253   2.545
 4180WAT     H112647   1.120   0.255   2.450
 4180WAT     H212648   1.227   0.258   2.557
 4181WAT      O12649   0.841   1.777   2.472
 4181WAT     H112650   0.866   1.773   2.380
 4181WAT     H212651   0.746   1.764   2.472
 4182WAT      O12652   0.549   0.412   2.139
 4182WAT     H112653   0.634   0.455   2.132
 4182WAT     H212654   0.512   0.443   2.221
 4183WAT      O12655   1.612   0.344   3.285
 4183WAT     H112656   1.562   0.418   3.319
 4183WAT     H212657   1.694   0.383   3.254
 4184WAT      O12658   1.441   0.869   2.630
 4184WAT     H112659   1.347   0.870   2.647
 4184WAT     H212660   1.473   0.790   2.674
 4185WAT      O12661   0.439   1.037   1.986
 4185WAT     H112662   0.516   1.026   2.042
 4185WAT     H212663   0.447   0.967   1.921
 4186WAT      O12664   0.308   0.780   2.054
 4186WAT     H112665   0.317   0.685   2.065
 4186WAT     H212666   0.398   0.813   2.065
 4187WAT      O12667   1.641   1.586   2.797
 4187WAT     H112668   1.654   1.668   2.845
 4187WAT     H212669   1.728   1.565   2.763
 4188WAT      O12670   0.389   1.795   2.765
 4188WAT     H112671   0.462   1.740   2.792
 4188WAT     H212672   0.427   1.882   2.751
 4189WAT      O12673   0.289   1.714   3.683
 4189WAT     H112674   0.369   1.746   3.725
 4189WAT     H212675   0.238   1.678   3.756
 4190WAT      O12676   0.700   1.712   1.947
 4190WAT     H112677   0.779   1.741   1.902
 4190WAT     H212678   0.648   1.669   1.879
 4191WAT      O12679   1.173   1.324   3.678
 4191WAT     H112680   1.112   1.327   3.604
 4191WAT     H212681   1.142   1.251   3.732
 4192WAT      O12682   1.316   1.697   3.539
 4192WAT     H112683   1.411   1.689   3.534
 4192WAT     H212684   1.301   1.764   3.607
 4193WAT      O12685   1.605   1.635   2.089
 4193WAT     H112686   1.576   1.594   2.008
 4193WAT     H212687   1.585   1.728   2.077
 4194WAT      O12688   0.751   1.234   1.933
 4194WAT     H112689   0.741   1.173   2.006
 4194WAT     H212690   0.735   1.182   1.855
 4195WAT      O12691   0.767   1.103   3.531
 4195WAT     H112692   0.690   1.160   3.523
 4195WAT     H212693   0.785   1.074   3.442
 4196WAT      O12694   1.075   1.141   1.994
 4196WAT     H112695   1.021   1.185   2.058
 4196WAT     H212696   1.138   1.090   2.046
 4197WAT      O12697   1.481   1.276   3.587
 4197WAT     H112698   1.555   1.310   3.537
 4197WAT     H212699   1.405   1.293   3.532
 4198WAT      O12700   0.264   0.777   3.667
 4198WAT     H112701   0.268   0.747   3.758
 4198WAT     H212702   0.350   0.817   3.651
 4199WAT      O12703   0.642   1.037   2.183
 4199WAT     H112704   0.684   1.020   2.268
 4199WAT     H212705   0.655   0.956   2.134
 4200WAT      O12706   0.458   0.635   3.464
 4200WAT     H112707   0.405   0.585   3.401
 4200WAT     H212708   0.525   0.677   3.411
 4201WAT      O12709   0.893   0.939   1.908
 4201WAT     H112710   0.946   0.867   1.872
 4201WAT     H212711   0.958   1.003   1.938
 4202WAT      O12712   1.348   1.081   3.440
 4202WAT     H112713   1.390   1.097   3.525
 4202WAT     H212714   1.255   1.094   3.457
 4203WAT      O12715   1.395   0.815   3.641
 4203WAT     H112716   1.454   0.740   3.632
 4203WAT     H212717   1.413   0.868   3.563
 4204WAT      O12718   0.507   0.331   3.472
 4204WAT     H112719   0.498   0.269   3.400
 4204WAT     H212720   0.449   0.404   3.449
 4205WAT      O12721   0.824   1.076   3.237
 4205WAT     H112722   0.866   1.161   3.220
 4205WAT     H212723   0.732   1.090   3.215
 4206WAT      O12724   1.058   0.850   3.376
 4206WAT     H112725   1.070   0.790   3.450
 4206WAT     H212726   1.144   0.853   3.334
 4207WAT      O12727   1.292   0.905   3.233
 4207WAT     H112728   1.239   0.957   3.173
 4207WAT     H212729   1.326   0.968   3.297
 4208WAT      O12730   0.532   0.644   1.878
 4208WAT     H112731   0.512   0.558   1.914
 4208WAT     H212732   0.515   0.635   1.784
 4209WAT      O12733   0.609   1.707   3.349
 4209WAT     H112734   0.556   1.779   3.317
 4209WAT     H212735   0.635   1.659   3.270
 4210WAT      O12736   0.735   0.504   3.502
 4210WAT     H112737   0.794   0.473   3.570
 4210WAT     H212738   0.653   0.457   3.517
 4211WAT      O12739   1.217   0.465   3.525
 4211WAT     H112740   1.148   0.399   3.518
 4211WAT     H212741   1.289   0.421   3.569
 4212WAT      O12742   0.412   0.354   1.877
 4212WAT     H112743   0.442   0.355   1.786
 4212WAT     H212744   0.486   0.319   1.926
 4213WAT      O12745   0.895   1.830   3.375
 4213WAT     H112746   0.888   1.921   3.406
 4213WAT     H212747   0.805   1.799   3.372
 4214WAT      O12748   0.733   0.248   1.975
 4214WAT     H112749   0.699   0.180   1.917
 4214WAT     H212750   0.754   0.202   2.057
 4215WAT      O12751   0.950   1.747   2.137
 4215WAT     H112752   1.039   1.781   2.139
 4215WAT     H212753   0.953   1.675   2.074
 4216WAT      O12754   0.314   1.284   1.960
 4216WAT     H112755   0.358   1.339   2.026
 4216WAT     H212756   0.362   1.202   1.961
 4217WAT      O12757   0.495   1.396   2.471
 4217WAT     H112758   0.465   1.384   2.561
 4217WAT     H212759   0.484   1.310   2.430
 4218WAT      O12760   1.648   1.600   3.408
 4218WAT     H112761   1.588   1.606   3.333
 4218WAT     H212762   1.661   1.506   3.421
 4219WAT      O12763   1.772   1.374   1.942
 4219WAT     H112764   1.689   1.381   1.989
 4219WAT     H212765   1.790   1.463   1.911
 4220WAT      O12766   1.717   1.049   2.192
 4220WAT     H112767   1.794   1.106   2.202
 4220WAT     H212768   1.719   0.992   2.269
 4221WAT      O12769   1.818   1.134   2.676
 4221WAT     H112770   1.855   1.056   2.636
 4221WAT     H212771   1.882   1.203   2.658
 4222WAT      O12772   1.516   1.273   3.218
 4222WAT     H112773   1.435   1.316   3.244
 4222WAT     H212774   1.557   1.334   3.156
 4223WAT      O12775   1.723   1.078   1.908
 4223WAT     H112776   1.750   1.169   1.895
 4223WAT     H212777   1.704   1.072   2.001
 4224WAT      O12778   1.362   0.381   2.037
 4224WAT     H112779   1.404   0.362   1.953
 4224WAT     H212780   1.332   0.295   2.068
 4225WAT      O12781   1.712   0.872   2.407
 4225WAT     H112782   1.675   0.795   2.364
 4225WAT     H212783   1.639   0.910   2.456
 4226WAT      O12784   1.651   0.786   3.370
 4226WAT     H112785   1.628   0.764   3.280
 4226WAT     H212786   1.677   0.878   3.366
 4227WAT      O12787   1.495   0.309   3.648
 4227WAT     H112788   1.583   0.310   3.686
 4227WAT     H212789   1.496   0.235   3.587
 4228WAT      O12790   1.640   0.694   2.737
 4228WAT     H112791   1.692   0.645   2.674
 4228WAT     H212792   1.698   0.708   2.811
 4229WAT      O12793   1.658   0.703   3.089
 4229WAT     H112794   1.563   0.699   3.101
 4229WAT     H212795   1.676   0.794   3.066
 4230WAT      O12796   0.243   0.528   2.000
 4230WAT     H112797   0.314   0.486   1.952
 4230WAT     H212798   0.172   0.535   1.937
 4231WAT      O12799   1.589   0.620   2.331
 4231WAT     H112800   1.638   0.597   2.409
 4231WAT     H212801   1.569   0.536   2.289
 4232WAT      O12802   1.732   0.484   2.584
 4232WAT     H112803   1.721   0.468   2.678
 4232WAT     H212804   1.808   0.431   2.560
 4233WAT      O12805   1.821   0.267   1.908
 4233WAT     H112806   1.913   0.254   1.887
 4233WAT     H212807   1.818   0.275   2.004
 4234WAT      O12808   1.828   0.344   2.171
 4234WAT     H112809   1.748   0.337   2.224
 4234WAT     H212810   1.848   0.437   2.170
 4235WAT      O12811   1.522   1.748   2.570
 4235WAT     H112812   1.582   1.716   2.503
 4235WAT     H212813   1.548   1.700   2.649
 4236WAT      O12814   0.313   1.391   3.585
 4236WAT     H112815   0.308   1.354   3.673
 4236WAT     H212816   0.326   1.485   3.599
 4237WAT      O12817   0.683   1.547   3.145
 4237WAT     H112818   0.659   1.573   3.057
 4237WAT     H212819   0.777   1.564   3.151
 4238WAT      O12820   0.903   0.193   3.521
 4238WAT     H112821   0.897   0.252   3.596
 4238WAT     H212822   0.997   0.182   3.506
 4239WAT      O12823   1.809   1.748   3.225
 4239WAT     H112824   1.759   1.788   3.154
 4239WAT     H212825   1.748   1.686   3.265
 4240WAT      O12826   0.297   1.686   3.297
 4240WAT     H112827   0.237   1.672   3.371
 4240WAT     H212828   0.296   1.602   3.251
 4241WAT      O12829   1.577   1.813   2.953
 4241WAT     H112830   1.531   1.888   2.916
 4241WAT     H212831   1.514   1.741   2.947
 4242WAT      O12832   0.260   1.422   3.192
 4242WAT     H112833   0.187   1.360   3.185
 4242WAT     H212834   0.266   1.462   3.105
 4243WAT      O12835   0.620   1.644   2.871
 4243WAT     H112836   0.672   1.582   2.818
 4243WAT     H212837   0.685   1.694   2.920
 4244WAT      O12838   0.894   1.733   2.953
 4244WAT     H112839   0.923   1.707   2.866
 4244WAT     H212840   0.945   1.677   3.012
 4245WAT      O12841   1.471   0.177   2.816
 4245WAT     H112842   1.515   0.171   2.731
 4245WAT     H212843   1.444   0.268   2.823
 4246WAT      O12844   0.805   0.348   2.563
 4246WAT     H112845   0.723   0.311   2.528
 4246WAT     H212846   0.855   0.273   2.593
 4247WAT      O12847   0.249   1.623   2.258
 4247WAT     H112848   0.196   1.661   2.187
 4247WAT     H212849   0.241   1.686   2.330
 4248WAT      O12850   0.901   1.825   3.690
 4248WAT     H112851   0.994   1.801   3.694
 4248WAT     H212852   0.899   1.908   3.642
 4249WAT      O12853   1.724   1.779   2.390
 4249WAT     H112854   1.742   1.710   2.325
 4249WAT     H212855   1.655   1.832   2.351
 4250WAT      O12856   0.509   1.818   2.145
 4250WAT     H112857   0.582   1.790   2.090
 4250WAT     H212858   0.535   1.794   2.234
 4251WAT      O12859   0.425   1.430   2.146
 4251WAT     H112860   0.362   1.477   2.201
 4251WAT     H212861   0.436   1.345   2.189
 4252WAT      O12862   1.558   1.748   3.672
 4252WAT     H112863   1.637   1.698   3.652
 4252WAT     H212864   1.587   1.815   3.733
 4253WAT      O12865   1.170   0.835   0.761
 4253WAT     H112866   1.162   0.743   0.734
 4253WAT     H212867   1.129   0.884   0.690
 4254WAT      O12868   0.983   1.013   0.949
 4254WAT     H112869   0.906   0.965   0.978
 4254WAT     H212870   1.049   0.945   0.931
 4255WAT      O12871   0.385   1.044   1.037
 4255WAT     H112872   0.302   1.018   1.076
 4255WAT     H212873   0.446   1.051   1.110
 4256WAT      O12874   1.386   1.453   0.827
 4256WAT     H112875   1.339   1.376   0.860
 4256WAT     H212876   1.467   1.456   0.877
 4257WAT      O12877   0.383   1.447   1.056
 4257WAT     H112878   0.413   1.358   1.038
 4257WAT     H212879   0.458   1.503   1.033
 4258WAT      O12880   1.008   1.682   0.789
 4258WAT     H112881   0.946   1.727   0.732
 4258WAT     H212882   1.094   1.697   0.749
 4259WAT      O12883   0.928   1.280   0.949
 4259WAT     H112884   0.921   1.186   0.933
 4259WAT     H212885   1.004   1.289   1.007
 4260WAT      O12886   1.031   0.561   0.972
 4260WAT     H112887   1.068   0.474   0.961
 4260WAT     H212888   1.021   0.594   0.883
 4261WAT      O12889   0.444   0.398   0.518
 4261WAT     H112890   0.454   0.488   0.549
 4261WAT     H212891   0.353   0.393   0.489
 4262WAT      O12892   1.409   0.310   0.665
 4262WAT     H112893   1.491   0.261   0.670
 4262WAT     H212894   1.412   0.369   0.741
 4263WAT      O12895   0.209   0.590   1.043
 4263WAT     H112896   0.277   0.617   1.105
 4263WAT     H212897   0.177   0.506   1.076
 4264WAT      O12898   0.628   0.695   0.952
 4264WAT     H112899   0.679   0.745   1.016
 4264WAT     H212900   0.681   0.617   0.934
 4265WAT      O12901   1.838   0.512   1.322
 4265WAT     H112902   1.767   0.551   1.270
 4265WAT     H212903   1.864   0.582   1.382
 4266WAT      O12904   1.095   1.170   0.528
 4266WAT     H112905   1.033   1.217   0.472
 4266WAT     H212906   1.146   1.239   0.570
 4267WAT      O12907   0.581   1.123   1.196
 4267WAT     H112908   0.548   1.186   1.260
 4267WAT     H212909   0.599   1.176   1.118
 4268WAT      O12910   1.432   0.504   0.943
 4268WAT     H112911   1.362   0.533   1.001
 4268WAT     H212912   1.469   0.585   0.907
 4269WAT      O12913   0.424   0.330   1.179
 4269WAT     H112914   0.458   0.414   1.149
 4269WAT     H212915   0.330   0.345   1.191
 4270WAT      O12916   0.502   1.320   1.377
 4270WAT     H112917   0.564   1.387   1.349
 4270WAT     H212918   0.416   1.361   1.368
 4271WAT      O12919   1.594   1.466   1.169
 4271WAT     H112920   1.526   1.533   1.168
 4271WAT     H212921   1.648   1.486   1.092
 4272WAT      O12922   1.739   0.449   0.982
 4272WAT     H112923   1.645   0.452   0.995
 4272WAT     H212924   1.772   0.530   1.020
 4273WAT      O12925   1.348   1.651   1.040
 4273WAT     H112926   1.349   1.610   0.954
 4273WAT     H212927   1.292   1.728   1.030
 4274WAT      O12928   1.477   1.323   0.549
 4274WAT     H112929   1.466   1.228   0.562
 4274WAT     H212930   1.477   1.359   0.638
 4275WAT      O12931   1.288   1.141   1.173
 4275WAT     H112932   1.329   1.119   1.090
 4275WAT     H212933   1.360   1.167   1.230
 4276WAT      O12934   1.031   0.885   0.485
 4276WAT     H112935   0.939   0.879   0.508
 4276WAT     H212936   1.047   0.979   0.474
 4277WAT      O12937   1.682   0.981   1.182
 4277WAT     H112938   1.599   0.988   1.135
 4277WAT     H212939   1.742   1.039   1.136
 4278WAT      O12940   1.434   1.042   0.535
 4278WAT     H112941   1.372   1.008   0.471
 4278WAT     H212942   1.433   0.977   0.606
 4279WAT      O12943   1.379   0.659   1.277
 4279WAT     H112944   1.337   0.742   1.302
 4279WAT     H212945   1.305   0.601   1.258
 4280WAT      O12946   0.592   0.938   0.763
 4280WAT     H112947   0.551   0.867   0.714
 4280WAT     H212948   0.601   0.904   0.852
 4281WAT      O12949   0.639   1.307   0.980
 4281WAT     H112950   0.609   1.246   0.912
 4281WAT     H212951   0.734   1.310   0.968
 4282WAT      O12952   0.463   0.615   1.141
 4282WAT     H112953   0.518   0.626   1.064
 4282WAT     H212954   0.515   0.653   1.213
 4283WAT      O12955   1.448   1.664   1.346
 4283WAT     H112956   1.400   1.745   1.327
 4283WAT     H212957   1.379   1.599   1.361
 4284WAT      O12958   0.548   1.280   1.645
 4284WAT     H112959   0.458   1.303   1.669
 4284WAT     H212960   0.550   1.293   1.550
 4285WAT      O12961   1.252   0.965   0.236
 4285WAT     H112962   1.296   0.882   0.221
 4285WAT     H212963   1.323   1.029   0.245
 4286WAT      O12964   0.431   0.968   1.502
 4286WAT     H112965   0.417   1.055   1.539
 4286WAT     H212966   0.342   0.933   1.488
 4287WAT      O12967   1.063   1.459   0.633
 4287WAT     H112968   1.107   1.534   0.591
 4287WAT     H212969   1.057   1.484   0.725
 4288WAT      O12970   0.610   1.562   1.723
 4288WAT     H112971   0.608   1.602   1.636
 4288WAT     H212972   0.594   1.469   1.707
 4289WAT      O12973   0.262   0.827   0.513
 4289WAT     H112974   0.250   0.900   0.452
 4289WAT     H212975   0.231   0.750   0.465
 4290WAT      O12976   1.806   1.640   1.853
 4290WAT     H112977   1.853   1.688   1.921
 4290WAT     H212978   1.868   1.633   1.780
 4291WAT      O12979   1.746   1.359   1.569
 4291WAT     H112980   1.759   1.335   1.477
 4291WAT     H212981   1.750   1.276   1.616
 4292WAT      O12982   1.132   1.730   1.426
 4292WAT     H112983   1.184   1.721   1.506
 4292WAT     H212984   1.048   1.764   1.455
 4293WAT      O12985   1.330   1.758   0.368
 4293WAT     H112986   1.314   1.729   0.458
 4293WAT     H212987   1.313   1.680   0.315
 4294WAT      O12988   0.578   1.736   0.546
 4294WAT     H112989   0.560   1.644   0.525
 4294WAT     H212990   0.492   1.772   0.570
 4295WAT      O12991   1.256   1.672   0.632
 4295WAT     H112992   1.302   1.593   0.663
 4295WAT     H212993   1.290   1.743   0.686
 4296WAT      O12994   1.731   0.565   1.665
 4296WAT     H112995   1.670   0.615   1.612
 4296WAT     H212996   1.699   0.475   1.659
 4297WAT      O12997   0.937   0.448   1.412
 4297WAT     H112998   0.891   0.469   1.493
 4297WAT     H212999   0.897   0.367   1.382
 4298WAT      O13000   1.437   0.571   1.525
 4298WAT     H113001   1.352   0.541   1.557
 4298WAT     H213002   1.421   0.595   1.434
 4299WAT      O13003   1.147   0.721   1.735
 4299WAT     H113004   1.179   0.637   1.701
 4299WAT     H213005   1.226   0.773   1.750
 4300WAT      O13006   0.712   0.216   1.037
 4300WAT     H113007   0.742   0.307   1.029
 4300WAT     H213008   0.767   0.167   0.976
 4301WAT      O13009   0.488   0.674   0.624
 4301WAT     H113010   0.465   0.653   0.715
 4301WAT     H213011   0.410   0.717   0.590
 4302WAT      O13012   1.211   0.675   0.484
 4302WAT     H113013   1.151   0.747   0.466
 4302WAT     H213014   1.266   0.669   0.406
 4303WAT      O13015   0.732   0.764   1.691
 4303WAT     H113016   0.722   0.670   1.676
 4303WAT     H213017   0.816   0.786   1.651
 4304WAT      O13018   1.071   0.538   0.687
 4304WAT     H113019   1.111   0.570   0.606
 4304WAT     H213020   1.108   0.451   0.699
 4305WAT      O13021   0.245   0.405   1.506
 4305WAT     H113022   0.205   0.490   1.527
 4305WAT     H213023   0.176   0.341   1.525
 4306WAT      O13024   0.902   0.413   1.813
 4306WAT     H113025   0.833   0.394   1.877
 4306WAT     H213026   0.977   0.442   1.866
 4307WAT      O13027   1.130   0.797   1.097
 4307WAT     H113028   1.057   0.848   1.132
 4307WAT     H213029   1.090   0.716   1.067
 4308WAT      O13030   0.774   0.465   0.937
 4308WAT     H113031   0.774   0.421   0.852
 4308WAT     H213032   0.863   0.497   0.948
 4309WAT      O13033   0.359   0.453   0.833
 4309WAT     H113034   0.325   0.501   0.909
 4309WAT     H213035   0.282   0.408   0.797
 4310WAT      O13036   0.780   0.565   0.236
 4310WAT     H113037   0.792   0.561   0.331
 4310WAT     H213038   0.741   0.651   0.221
 4311WAT      O13039   1.176   0.343   1.038
 4311WAT     H113040   1.178   0.388   1.122
 4311WAT     H213041   1.151   0.253   1.059
 4312WAT      O13042   0.189   1.186   1.564
 4312WAT     H113043   0.150   1.122   1.624
 4312WAT     H213044   0.220   1.257   1.621
 4313WAT      O13045   0.804   0.871   1.112
 4313WAT     H113046   0.840   0.824   1.187
 4313WAT     H213047   0.785   0.958   1.146
 4314WAT      O13048   0.583   0.775   1.344
 4314WAT     H113049   0.552   0.863   1.366
 4314WAT     H213050   0.678   0.781   1.347
 4315WAT      O13051   0.436   1.196   0.403
 4315WAT     H113052   0.358   1.142   0.387
 4315WAT     H213053   0.509   1.144   0.370
 4316WAT      O13054   1.511   1.095   0.983
 4316WAT     H113055   1.583   1.145   0.944
 4316WAT     H213056   1.491   1.028   0.918
 4317WAT      O13057   1.058   0.235   0.397
 4317WAT     H113058   0.976   0.185   0.389
 4317WAT     H213059   1.038   0.319   0.355
 4318WAT      O13060   1.050   1.102   1.571
 4318WAT     H113061   1.043   1.010   1.546
 4318WAT     H213062   0.987   1.112   1.643
 4319WAT      O13063   1.329   0.672   0.227
 4319WAT     H113064   1.418   0.703   0.209
 4319WAT     H213065   1.326   0.585   0.187
 4320WAT      O13066   0.440   1.163   0.767
 4320WAT     H113067   0.492   1.082   0.762
 4320WAT     H213068   0.395   1.156   0.851
 4321WAT      O13069   0.929   1.289   0.294
 4321WAT     H113070   0.963   1.364   0.245
 4321WAT     H213071   0.846   1.320   0.331
 4322WAT      O13072   0.188   0.859   1.458
 4322WAT     H113073   0.153   0.926   1.517
 4322WAT     H213074   0.159   0.776   1.496
 4323WAT      O13075   0.509   0.905   1.747
 4323WAT     H113076   0.479   0.920   1.657
 4323WAT     H213077   0.586   0.849   1.738
 4324WAT      O13078   1.043   1.385   1.546
 4324WAT     H113079   1.044   1.291   1.525
 4324WAT     H213080   0.972   1.393   1.610
 4325WAT      O13081   1.664   1.049   1.481
 4325WAT     H113082   1.591   1.108   1.461
 4325WAT     H213083   1.717   1.048   1.401
 4326WAT      O13084   1.659   1.488   0.446
 4326WAT     H113085   1.595   1.423   0.474
 4326WAT     H213086   1.620   1.529   0.369
 4327WAT      O13087   1.217   1.221   0.831
 4327WAT     H113088   1.252   1.162   0.765
 4327WAT     H213089   1.129   1.189   0.848
 4328WAT      O13090   0.826   1.297   0.572
 4328WAT     H113091   0.894   1.352   0.610
 4328WAT     H213092   0.747   1.352   0.575
 4329WAT      O13093   0.756   0.998   0.533
 4329WAT     H113094   0.801   1.079   0.555
 4329WAT     H213095   0.721   0.966   0.616
 4330WAT      O13096   0.986   1.549   1.256
 4330WAT     H113097   1.051   1.569   1.324
 4330WAT     H213098   1.022   1.473   1.211
 4331WAT      O13099   1.113   1.349   1.128
 4331WAT     H113100   1.178   1.279   1.139
 4331WAT     H213101   1.166   1.427   1.110
 4332WAT      O13102   1.291   1.429   1.448
 4332WAT     H113103   1.324   1.488   1.516
 4332WAT     H213104   1.199   1.416   1.471
 4333WAT      O13105   1.456   1.169   0.266
 4333WAT     H113106   1.427   1.215   0.345
 4333WAT     H213107   1.536   1.123   0.293
 4334WAT      O13108   0.874   1.434   1.765
 4334WAT     H113109   0.842   1.362   1.819
 4334WAT     H213110   0.806   1.502   1.772
 4335WAT      O13111   0.678   1.519   0.259
 4335WAT     H113112   0.677   1.592   0.198
 4335WAT     H213113   0.586   1.494   0.268
 4336WAT      O13114   0.238   1.041   0.334
 4336WAT     H113115   0.177   1.115   0.335
 4336WAT     H213116   0.285   1.050   0.251
 4337WAT      O13117   1.195   0.457   1.301
 4337WAT     H113118   1.232   0.375   1.334
 4337WAT     H213119   1.109   0.463   1.343
 4338WAT      O13120   1.532   0.353   0.382
 4338WAT     H113121   1.469   0.363   0.311
 4338WAT     H213122   1.482   0.375   0.461
 4339WAT      O13123   0.729   0.581   0.524
 4339WAT     H113124   0.658   0.628   0.568
 4339WAT     H213125   0.757   0.515   0.587
 4340WAT      O13126   0.891   0.723   1.324
 4340WAT     H113127   0.941   0.770   1.390
 4340WAT     H213128   0.906   0.630   1.344
 4341WAT      O13129   1.132   0.253   0.668
 4341WAT     H113130   1.120   0.255   0.573
 4341WAT     H213131   1.227   0.258   0.680
 4342WAT      O13132   0.841   1.777   0.595
 4342WAT     H113133   0.866   1.773   0.503
 4342WAT     H213134   0.746   1.764   0.594
 4343WAT      O13135   0.549   0.412   0.261
 4343WAT     H113136   0.634   0.455   0.255
 4343WAT     H213137   0.512   0.443   0.344
 4344WAT      O13138   1.612   0.344   1.408
 4344WAT     H113139   1.562   0.418   1.442
 4344WAT     H213140   1.694   0.383   1.376
 4345WAT      O13141   1.441   0.869   0.752
 4345WAT     H113142   1.347   0.870   0.770
 4345WAT     H213143   1.473   0.790   0.797
 4346WAT      O13144   0.308   0.780   0.177
 4346WAT     H113145   0.317   0.685   0.188
 4346WAT     H213146   0.398   0.813   0.187
 4347WAT      O13147   1.641   1.586   0.920
 4347WAT     H113148   1.654   1.668   0.967
 4347WAT     H213149   1.728   1.565   0.885
 4348WAT      O13150   0.389   1.795   0.887
 4348WAT     H113151   0.462   1.740   0.914
 4348WAT     H213152   0.427   1.882   0.873
 4349WAT      O13153   0.289   1.714   1.806
 4349WAT     H113154   0.369   1.746   1.847
 4349WAT     H213155   0.238   1.678   1.878
 4350WAT      O13156   1.173   1.324   1.801
 4350WAT     H113157   1.112   1.327   1.727
 4350WAT     H213158   1.142   1.251   1.854
 4351WAT      O13159   1.316   1.697   1.662
 4351WAT     H113160   1.411   1.689   1.657
 4351WAT     H213161   1.301   1.764   1.729
 4352WAT      O13162   0.767   1.103   1.654
 4352WAT     H113163   0.690   1.160   1.645
 4352WAT     H213164   0.785   1.074   1.564
 4353WAT      O13165   1.481   1.276   1.709
 4353WAT     H113166   1.555   1.310   1.659
 4353WAT     H213167   1.405   1.293   1.654
 4354WAT      O13168   0.264   0.777   1.790
 4354WAT     H113169   0.268   0.747   1.881
 4354WAT     H213170   0.350   0.817   1.774
 4355WAT      O13171   0.642   1.037   0.306
 4355WAT     H113172   0.684   1.020   0.390
 4355WAT     H213173   0.655   0.956   0.256
 4356WAT      O13174   0.458   0.635   1.587
 4356WAT     H113175   0.405   0.585   1.524
 4356WAT     H213176   0.525   0.677   1.533
 4357WAT      O13177   1.348   1.081   1.563
 4357WAT     H113178   1.390   1.097   1.648
 4357WAT     H213179   1.255   1.094   1.579
 4358WAT      O13180   1.395   0.815   1.763
 4358WAT     H113181   1.454   0.740   1.755
 4358WAT     H213182   1.413   0.868   1.686
 4359WAT      O13183   0.507   0.331   1.595
 4359WAT     H113184   0.498   0.269   1.522
 4359WAT     H213185   0.449   0.404   1.572
 4360WAT      O13186   0.824   1.076   1.360
 4360WAT     H113187   0.866   1.161   1.343
 4360WAT     H213188   0.732   1.090   1.337
 4361WAT      O13189   1.058   0.850   1.498
 4361WAT     H113190   1.070   0.790   1.572
 4361WAT     H213191   1.144   0.853   1.456
 4362WAT      O13192   1.292   0.905   1.356
 4362WAT     H113193   1.239   0.957   1.296
 4362WAT     H213194   1.326   0.968   1.419
 4363WAT      O13195   0.609   1.707   1.472
 4363WAT     H113196   0.556   1.779   1.440
 4363WAT     H213197   0.635   1.659   1.393
 4364WAT      O13198   0.735   0.504   1.624
 4364WAT     H113199   0.794   0.473   1.693
 4364WAT     H213200   0.653   0.457   1.640
 4365WAT      O13201   1.217   0.465   1.647
 4365WAT     H113202   1.148   0.399   1.641
 4365WAT     H213203   1.289   0.421   1.692
 4366WAT      O13204   0.895   1.830   1.497
 4366WAT     H113205   0.888   1.921   1.528
 4366WAT     H213206   0.805   1.799   1.495
 4367WAT      O13207   0.950   1.747   0.260
 4367WAT     H113208   1.039   1.781   0.262
 4367WAT     H213209   0.953   1.675   0.197
 4368WAT      O13210   0.495   1.396   0.594
 4368WAT     H113211   0.465   1.384   0.684
 4368WAT     H213212   0.484   1.310   0.553
 4369WAT      O13213   1.648   1.600   1.530
 4369WAT     H113214   1.588   1.606   1.456
 4369WAT     H213215   1.661   1.506   1.543
 4370WAT      O13216   1.717   1.049   0.314
 4370WAT     H113217   1.794   1.106   0.325
 4370WAT     H213218   1.719   0.992   0.392
 4371WAT      O13219   1.818   1.134   0.799
 4371WAT     H113220   1.855   1.056   0.758
 4371WAT     H213221   1.882   1.203   0.781
 4372WAT      O13222   1.516   1.273   1.340
 4372WAT     H113223   1.435   1.316   1.366
 4372WAT     H213224   1.557   1.334   1.279
 4373WAT      O13225   1.712   0.872   0.529
 4373WAT     H113226   1.675   0.795   0.486
 4373WAT     H213227   1.639   0.910   0.578
 4374WAT      O13228   1.651   0.786   1.493
 4374WAT     H113229   1.628   0.764   1.403
 4374WAT     H213230   1.677   0.878   1.488
 4375WAT      O13231   1.495   0.309   1.771
 4375WAT     H113232   1.583   0.310   1.809
 4375WAT     H213233   1.496   0.235   1.710
 4376WAT      O13234   1.640   0.694   0.860
 4376WAT     H113235   1.692   0.645   0.796
 4376WAT     H213236   1.698   0.708   0.934
 4377WAT      O13237   1.658   0.703   1.212
 4377WAT     H113238   1.563   0.699   1.223
 4377WAT     H213239   1.676   0.794   1.188
 4378WAT      O13240   1.589   0.620   0.453
 4378WAT     H113241   1.638   0.597   0.532
 4378WAT     H213242   1.569   0.536   0.412
 4379WAT      O13243   1.732   0.484   0.707
 4379WAT     H113244   1.721   0.468   0.801
 4379WAT     H213245   1.808   0.431   0.683
 4380WAT      O13246   1.828   0.344   0.293
 4380WAT     H113247   1.748   0.337   0.346
 4380WAT     H213248   1.848   0.437   0.292
 4381WAT      O13249   1.522   1.748   0.693
 4381WAT     H113250   1.582   1.716   0.625
 4381WAT     H213251   1.548   1.700   0.772
 4382WAT      O13252   0.313   1.391   1.708
 4382WAT     H113253   0.308   1.354   1.796
 4382WAT     H213254   0.326   1.485   1.722
 4383WAT      O13255   0.683   1.547   1.268
 4383WAT     H113256   0.659   1.573   1.179
 4383WAT     H213257   0.777   1.564   1.273
 4384WAT      O13258   0.903   0.193   1.643
 4384WAT     H113259   0.897   0.252   1.718
 4384WAT     H213260   0.997   0.182   1.629
 4385WAT      O13261   1.809   1.748   1.348
 4385WAT     H113262   1.759   1.788   1.276
 4385WAT     H213263   1.748   1.686   1.387
 4386WAT      O13264   0.297   1.686   1.420
 4386WAT     H113265   0.237   1.672   1.494
 4386WAT     H213266   0.296   1.602   1.373
 4387WAT      O13267   1.577   1.813   1.076
 4387WAT     H113268   1.531   1.888   1.038
 4387WAT     H213269   1.514   1.741   1.070
 4388WAT      O13270   0.260   1.422   1.315
 4388WAT     H113271   0.187   1.360   1.308
 4388WAT     H213272   0.266   1.462   1.228
 4389WAT      O13273   0.620   1.644   0.993
 4389WAT     H113274   0.672   1.582   0.941
 4389WAT     H213275   0.685   1.694   1.042
 4390WAT      O13276   0.894   1.733   1.076
 4390WAT     H113277   0.923   1.707   0.988
 4390WAT     H213278   0.945   1.677   1.135
 4391WAT      O13279   1.471   0.177   0.938
 4391WAT     H113280   1.515   0.171   0.854
 4391WAT     H213281   1.444   0.268   0.946
 4392WAT      O13282   0.805   0.348   0.685
 4392WAT     H113283   0.723   0.311   0.651
 4392WAT     H213284   0.855   0.273   0.715
 4393WAT      O13285   0.249   1.623   0.380
 4393WAT     H113286   0.196   1.661   0.310
 4393WAT     H213287   0.241   1.686   0.452
 4394WAT      O13288   0.901   1.825   1.813
 4394WAT     H113289   0.994   1.801   1.817
 4394WAT     H213290   0.899   1.908   1.765
 4395WAT      O13291   1.724   1.779   0.512
 4395WAT     H113292   1.742   1.710   0.448
 4395WAT     H213293   1.655   1.832   0.473
 4396WAT      O13294   0.509   1.818   0.268
 4396WAT     H113295   0.582   1.790   0.213
 4396WAT     H213296   0.535   1.794   0.357
 4397WAT      O13297   0.425   1.430   0.268
 4397WAT     H113298   0.362   1.477   0.323
 4397WAT     H213299   0.436   1.345   0.312
 4398WAT      O13300   1.558   1.748   1.795
 4398WAT     H113301   1.637   1.698   1.774
 4398WAT     H213302   1.587   1.815   1.856
   5.53664   5.53857   5.59689
