; rebuilt from a .tpr dump by tpr2top.py (explicit parameters; see header of that script)
[ defaults ]
; nbfunc comb-rule gen-pairs fudgeLJ fudgeQQ
1 1 no 1.0 1.0

[ atomtypes ]
; name mass charge ptype c6 c12
CC3161     12.01100 0.0 A 1.09681045e-03 2.24626751e-06
HCA1        1.00800 0.0 A 1.39522090e-04 2.58476920e-08
OC311      15.99940 0.0 A 3.11026420e-03 3.00895385e-06
HT          1.00800 0.0 A 3.15396931e-09 1.29212775e-17
OC3C61     15.99940 0.0 A 1.08070031e-03 6.97844825e-07
CC321      12.01100 0.0 A 1.97772519e-03 4.17342062e-06
HCA2        1.00800 0.0 A 1.08517183e-04 2.01037604e-08
OT         15.99940 0.0 A 2.48954049e-03 2.43476779e-06

[ nonbond_params ]
CC3161   CC3161   1 1.09681045e-03 2.24626751e-06
CC3161   HCA1     1 4.40840580e-04 3.06006200e-07
CC3161   OC311    1 1.86874531e-03 2.66139818e-06
CC3161   HT       1 3.89018351e-05 2.35686426e-09
CC3161   OC3C61   1 1.11931888e-03 1.32336902e-06
CC3161   CC321    1 1.47284474e-03 3.06191600e-06
CC3161   HCA2     1 3.88784858e-04 2.69872118e-07
CC3161   OT       1 1.67134008e-03 2.39242513e-06
HCA1     HCA1     1 1.39522090e-04 2.58476920e-08
HCA1     OC311    1 6.97206240e-04 3.12392729e-07
HCA1     HT       1 5.58290640e-06 4.09339715e-11
HCA1     OC3C61   1 4.01102036e-04 1.43301875e-07
HCA1     CC321    1 5.93732402e-04 4.19594272e-07
HCA1     HCA2     1 1.23046921e-04 2.27955219e-08
HCA1     OT       1 6.24232343e-04 2.81429777e-07
OC311    OC311    1 3.11026420e-03 3.00895385e-06
OC311    HT       1 4.87784528e-05 1.51238289e-09
OC311    OC3C61   1 1.83962565e-03 1.45896058e-06
OC311    CC321    1 2.51177675e-03 3.63456775e-06
OC311    HCA2     1 6.14878081e-04 2.75504476e-07
OC311    OT       1 2.78265448e-03 2.70669079e-06
HT       HT       1 3.15396931e-09 1.29212775e-17
HT       OC3C61   1 2.46214313e-05 5.34067290e-10
HT       CC321    1 5.28660348e-05 3.29024985e-09
HT       HCA2     1 4.92366098e-06 3.61003727e-11
HT       OT       1 4.38244861e-05 1.37195055e-09
OC3C61   OC3C61   1 1.08070031e-03 6.97844825e-07
OC3C61   CC321    1 1.50522788e-03 1.80908432e-06
OC3C61   HCA2     1 3.53738782e-04 1.26380371e-07
OC3C61   OT       1 1.64615584e-03 1.31288175e-06
CC321    CC321    1 1.97772519e-03 4.17342062e-06
CC321    HCA2     1 5.23622730e-04 3.70047360e-07
CC321    OT       1 2.24641454e-03 3.26715349e-06
HCA2     HCA2     1 1.08517183e-04 2.01037604e-08
HCA2     OT       1 5.50521188e-04 2.48197750e-07
OT       OT       1 2.48954049e-03 2.43476779e-06

[ moleculetype ]
CARB 3

[ atoms ]
     1 CC3161      1 AGLC   C1          1   0.340000   12.01100
     2 HCA1        1 AGLC   H1          2   0.090000    1.00800
     3 OC311       1 AGLC   O1          3  -0.650000   15.99940
     4 HT          1 AGLC   HO1         4   0.420000    1.00800
     5 CC3161      1 AGLC   C5          5   0.110000   12.01100
     6 HCA1        1 AGLC   H5          6   0.090000    1.00800
     7 OC3C61      1 AGLC   O5          7  -0.400000   15.99940
     8 CC3161      1 AGLC   C2          8   0.140000   12.01100
     9 HCA1        1 AGLC   H2          9   0.090000    1.00800
    10 OC311       1 AGLC   O2         10  -0.650000   15.99940
    11 HT          1 AGLC   HO2        11   0.420000    1.00800
    12 CC3161      1 AGLC   C3         12   0.140000   12.01100
    13 HCA1        1 AGLC   H3         13   0.090000    1.00800
    14 OC311       1 AGLC   O3         14  -0.650000   15.99940
    15 HT          1 AGLC   HO3        15   0.420000    1.00800
    16 CC3161      1 AGLC   C4         16   0.090000   12.01100
    17 HCA1        1 AGLC   H4         17   0.090000    1.00800
    18 OC3C61      1 AGLC   O4         18  -0.360000   15.99940
    19 CC321       1 AGLC   C6         19   0.050000   12.01100
    20 HCA2        1 AGLC   H61        20   0.090000    1.00800
    21 HCA2        1 AGLC   H62        21   0.090000    1.00800
    22 OC311       1 AGLC   O6         22  -0.650000   15.99940
    23 HT          1 AGLC   HO6        23   0.420000    1.00800
    24 CC3161      2 AGLC   C1         24   0.290000   12.01100
    25 HCA1        2 AGLC   H1         25   0.090000    1.00800
    26 CC3161      2 AGLC   C5         26   0.110000   12.01100
    27 HCA1        2 AGLC   H5         27   0.090000    1.00800
    28 OC3C61      2 AGLC   O5         28  -0.400000   15.99940
    29 CC3161      2 AGLC   C2         29   0.140000   12.01100
    30 HCA1        2 AGLC   H2         30   0.090000    1.00800
    31 OC311       2 AGLC   O2         31  -0.650000   15.99940
    32 HT          2 AGLC   HO2        32   0.420000    1.00800
    33 CC3161      2 AGLC   C3         33   0.140000   12.01100
    34 HCA1        2 AGLC   H3         34   0.090000    1.00800
    35 OC311       2 AGLC   O3         35  -0.650000   15.99940
    36 HT          2 AGLC   HO3        36   0.420000    1.00800
    37 CC3161      2 AGLC   C4         37   0.090000   12.01100
    38 HCA1        2 AGLC   H4         38   0.090000    1.00800
    39 OC3C61      2 AGLC   O4         39  -0.360000   15.99940
    40 CC321       2 AGLC   C6         40   0.050000   12.01100
    41 HCA2        2 AGLC   H61        41   0.090000    1.00800
    42 HCA2        2 AGLC   H62        42   0.090000    1.00800
    43 OC311       2 AGLC   O6         43  -0.650000   15.99940
    44 HT          2 AGLC   HO6        44   0.420000    1.00800
    45 CC3161      3 AGLC   C1         45   0.290000   12.01100
    46 HCA1        3 AGLC   H1         46   0.090000    1.00800
    47 CC3161      3 AGLC   C5         47   0.110000   12.01100
    48 HCA1        3 AGLC   H5         48   0.090000    1.00800
    49 OC3C61      3 AGLC   O5         49  -0.400000   15.99940
    50 CC3161      3 AGLC   C2         50   0.140000   12.01100
    51 HCA1        3 AGLC   H2         51   0.090000    1.00800
    52 OC311       3 AGLC   O2         52  -0.650000   15.99940
    53 HT          3 AGLC   HO2        53   0.420000    1.00800
    54 CC3161      3 AGLC   C3         54   0.140000   12.01100
    55 HCA1        3 AGLC   H3         55   0.090000    1.00800
    56 OC311       3 AGLC   O3         56  -0.650000   15.99940
    57 HT          3 AGLC   HO3        57   0.420000    1.00800
    58 CC3161      3 AGLC   C4         58   0.090000   12.01100
    59 HCA1        3 AGLC   H4         59   0.090000    1.00800
    60 OC3C61      3 AGLC   O4         60  -0.360000   15.99940
    61 CC321       3 AGLC   C6         61   0.050000   12.01100
    62 HCA2        3 AGLC   H61        62   0.090000    1.00800
    63 HCA2        3 AGLC   H62        63   0.090000    1.00800
    64 OC311       3 AGLC   O6         64  -0.650000   15.99940
    65 HT          3 AGLC   HO6        65   0.420000    1.00800
    66 CC3161      4 AGLC   C1         66   0.290000   12.01100
    67 HCA1        4 AGLC   H1         67   0.090000    1.00800
    68 CC3161      4 AGLC   C5         68   0.110000   12.01100
    69 HCA1        4 AGLC   H5         69   0.090000    1.00800
    70 OC3C61      4 AGLC   O5         70  -0.400000   15.99940
    71 CC3161      4 AGLC   C2         71   0.140000   12.01100
    72 HCA1        4 AGLC   H2         72   0.090000    1.00800
    73 OC311       4 AGLC   O2         73  -0.650000   15.99940
    74 HT          4 AGLC   HO2        74   0.420000    1.00800
    75 CC3161      4 AGLC   C3         75   0.140000   12.01100
    76 HCA1        4 AGLC   H3         76   0.090000    1.00800
    77 OC311       4 AGLC   O3         77  -0.650000   15.99940
    78 HT          4 AGLC   HO3        78   0.420000    1.00800
    79 CC3161      4 AGLC   C4         79   0.090000   12.01100
    80 HCA1        4 AGLC   H4         80   0.090000    1.00800
    81 OC3C61      4 AGLC   O4         81  -0.360000   15.99940
    82 CC321       4 AGLC   C6         82   0.050000   12.01100
    83 HCA2        4 AGLC   H61        83   0.090000    1.00800
    84 HCA2        4 AGLC   H62        84   0.090000    1.00800
    85 OC311       4 AGLC   O6         85  -0.650000   15.99940
    86 HT          4 AGLC   HO6        86   0.420000    1.00800
    87 CC3161      5 AGLC   C1         87   0.290000   12.01100
    88 HCA1        5 AGLC   H1         88   0.090000    1.00800
    89 CC3161      5 AGLC   C5         89   0.110000   12.01100
    90 HCA1        5 AGLC   H5         90   0.090000    1.00800
    91 OC3C61      5 AGLC   O5         91  -0.400000   15.99940
    92 CC3161      5 AGLC   C2         92   0.140000   12.01100
    93 HCA1        5 AGLC   H2         93   0.090000    1.00800
    94 OC311       5 AGLC   O2         94  -0.650000   15.99940
    95 HT          5 AGLC   HO2        95   0.420000    1.00800
    96 CC3161      5 AGLC   C3         96   0.140000   12.01100
    97 HCA1        5 AGLC   H3         97   0.090000    1.00800
    98 OC311       5 AGLC   O3         98  -0.650000   15.99940
    99 HT          5 AGLC   HO3        99   0.420000    1.00800
   100 CC3161      5 AGLC   C4        100   0.090000   12.01100
   101 HCA1        5 AGLC   H4        101   0.090000    1.00800
   102 OC3C61      5 AGLC   O4        102  -0.360000   15.99940
   103 CC321       5 AGLC   C6        103   0.050000   12.01100
   104 HCA2        5 AGLC   H61       104   0.090000    1.00800
   105 HCA2        5 AGLC   H62       105   0.090000    1.00800
   106 OC311       5 AGLC   O6        106  -0.650000   15.99940
   107 HT          5 AGLC   HO6       107   0.420000    1.00800
   108 CC3161      6 AGLC   C1        108   0.290000   12.01100
   109 HCA1        6 AGLC   H1        109   0.090000    1.00800
   110 CC3161      6 AGLC   C5        110   0.110000   12.01100
   111 HCA1        6 AGLC   H5        111   0.090000    1.00800
   112 OC3C61      6 AGLC   O5        112  -0.400000   15.99940
   113 CC3161      6 AGLC   C2        113   0.140000   12.01100
   114 HCA1        6 AGLC   H2        114   0.090000    1.00800
   115 OC311       6 AGLC   O2        115  -0.650000   15.99940
   116 HT          6 AGLC   HO2       116   0.420000    1.00800
   117 CC3161      6 AGLC   C3        117   0.140000   12.01100
   118 HCA1        6 AGLC   H3        118   0.090000    1.00800
   119 OC311       6 AGLC   O3        119  -0.650000   15.99940
   120 HT          6 AGLC   HO3       120   0.420000    1.00800
   121 CC3161      6 AGLC   C4        121   0.090000   12.01100
   122 HCA1        6 AGLC   H4        122   0.090000    1.00800
   123 OC3C61      6 AGLC   O4        123  -0.360000   15.99940
   124 CC321       6 AGLC   C6        124   0.050000   12.01100
   125 HCA2        6 AGLC   H61       125   0.090000    1.00800
   126 HCA2        6 AGLC   H62       126   0.090000    1.00800
   127 OC311       6 AGLC   O6        127  -0.650000   15.99940
   128 HT          6 AGLC   HO6       128   0.420000    1.00800
   129 CC3161      7 AGLC   C1        129   0.290000   12.01100
   130 HCA1        7 AGLC   H1        130   0.090000    1.00800
   131 CC3161      7 AGLC   C5        131   0.110000   12.01100
   132 HCA1        7 AGLC   H5        132   0.090000    1.00800
   133 OC3C61      7 AGLC   O5        133  -0.400000   15.99940
   134 CC3161      7 AGLC   C2        134   0.140000   12.01100
   135 HCA1        7 AGLC   H2        135   0.090000    1.00800
   136 OC311       7 AGLC   O2        136  -0.650000   15.99940
   137 HT          7 AGLC   HO2       137   0.420000    1.00800
   138 CC3161      7 AGLC   C3        138   0.140000   12.01100
   139 HCA1        7 AGLC   H3        139   0.090000    1.00800
   140 OC311       7 AGLC   O3        140  -0.650000   15.99940
   141 HT          7 AGLC   HO3       141   0.420000    1.00800
   142 CC3161      7 AGLC   C4        142   0.090000   12.01100
   143 HCA1        7 AGLC   H4        143   0.090000    1.00800
   144 OC3C61      7 AGLC   O4        144  -0.360000   15.99940
   145 CC321       7 AGLC   C6        145   0.050000   12.01100
   146 HCA2        7 AGLC   H61       146   0.090000    1.00800
   147 HCA2        7 AGLC   H62       147   0.090000    1.00800
   148 OC311       7 AGLC   O6        148  -0.650000   15.99940
   149 HT          7 AGLC   HO6       149   0.420000    1.00800
   150 CC3161      8 AGLC   C1        150   0.290000   12.01100
   151 HCA1        8 AGLC   H1        151   0.090000    1.00800
   152 CC3161      8 AGLC   C5        152   0.110000   12.01100
   153 HCA1        8 AGLC   H5        153   0.090000    1.00800
   154 OC3C61      8 AGLC   O5        154  -0.400000   15.99940
   155 CC3161      8 AGLC   C2        155   0.140000   12.01100
   156 HCA1        8 AGLC   H2        156   0.090000    1.00800
   157 OC311       8 AGLC   O2        157  -0.650000   15.99940
   158 HT          8 AGLC   HO2       158   0.420000    1.00800
   159 CC3161      8 AGLC   C3        159   0.140000   12.01100
   160 HCA1        8 AGLC   H3        160   0.090000    1.00800
   161 OC311       8 AGLC   O3        161  -0.650000   15.99940
   162 HT          8 AGLC   HO3       162   0.420000    1.00800
   163 CC3161      8 AGLC   C4        163   0.090000   12.01100
   164 HCA1        8 AGLC   H4        164   0.090000    1.00800
   165 OC3C61      8 AGLC   O4        165  -0.360000   15.99940
   166 CC321       8 AGLC   C6        166   0.050000   12.01100
   167 HCA2        8 AGLC   H61       167   0.090000    1.00800
   168 HCA2        8 AGLC   H62       168   0.090000    1.00800
   169 OC311       8 AGLC   O6        169  -0.650000   15.99940
   170 HT          8 AGLC   HO6       170   0.420000    1.00800
   171 CC3161      9 AGLC   C1        171   0.290000   12.01100
   172 HCA1        9 AGLC   H1        172   0.090000    1.00800
   173 CC3161      9 AGLC   C5        173   0.110000   12.01100
   174 HCA1        9 AGLC   H5        174   0.090000    1.00800
   175 OC3C61      9 AGLC   O5        175  -0.400000   15.99940
   176 CC3161      9 AGLC   C2        176   0.140000   12.01100
   177 HCA1        9 AGLC   H2        177   0.090000    1.00800
   178 OC311       9 AGLC   O2        178  -0.650000   15.99940
   179 HT          9 AGLC   HO2       179   0.420000    1.00800
   180 CC3161      9 AGLC   C3        180   0.140000   12.01100
   181 HCA1        9 AGLC   H3        181   0.090000    1.00800
   182 OC311       9 AGLC   O3        182  -0.650000   15.99940
   183 HT          9 AGLC   HO3       183   0.420000    1.00800
   184 CC3161      9 AGLC   C4        184   0.090000   12.01100
   185 HCA1        9 AGLC   H4        185   0.090000    1.00800
   186 OC3C61      9 AGLC   O4        186  -0.360000   15.99940
   187 CC321       9 AGLC   C6        187   0.050000   12.01100
   188 HCA2        9 AGLC   H61       188   0.090000    1.00800
   189 HCA2        9 AGLC   H62       189   0.090000    1.00800
   190 OC311       9 AGLC   O6        190  -0.650000   15.99940
   191 HT          9 AGLC   HO6       191   0.420000    1.00800
   192 CC3161     10 AGLC   C1        192   0.290000   12.01100
   193 HCA1       10 AGLC   H1        193   0.090000    1.00800
   194 CC3161     10 AGLC   C5        194   0.110000   12.01100
   195 HCA1       10 AGLC   H5        195   0.090000    1.00800
   196 OC3C61     10 AGLC   O5        196  -0.400000   15.99940
   197 CC3161     10 AGLC   C2        197   0.140000   12.01100
   198 HCA1       10 AGLC   H2        198   0.090000    1.00800
   199 OC311      10 AGLC   O2        199  -0.650000   15.99940
   200 HT         10 AGLC   HO2       200   0.420000    1.00800
   201 CC3161     10 AGLC   C3        201   0.140000   12.01100
   202 HCA1       10 AGLC   H3        202   0.090000    1.00800
   203 OC311      10 AGLC   O3        203  -0.650000   15.99940
   204 HT         10 AGLC   HO3       204   0.420000    1.00800
   205 CC3161     10 AGLC   C4        205   0.090000   12.01100
   206 HCA1       10 AGLC   H4        206   0.090000    1.00800
   207 OC3C61     10 AGLC   O4        207  -0.360000   15.99940
   208 CC321      10 AGLC   C6        208   0.050000   12.01100
   209 HCA2       10 AGLC   H61       209   0.090000    1.00800
   210 HCA2       10 AGLC   H62       210   0.090000    1.00800
   211 OC311      10 AGLC   O6        211  -0.650000   15.99940
   212 HT         10 AGLC   HO6       212   0.420000    1.00800
   213 CC3161     11 AGLC   C1        213   0.290000   12.01100
   214 HCA1       11 AGLC   H1        214   0.090000    1.00800
   215 CC3161     11 AGLC   C5        215   0.110000   12.01100
   216 HCA1       11 AGLC   H5        216   0.090000    1.00800
   217 OC3C61     11 AGLC   O5        217  -0.400000   15.99940
   218 CC3161     11 AGLC   C2        218   0.140000   12.01100
   219 HCA1       11 AGLC   H2        219   0.090000    1.00800
   220 OC311      11 AGLC   O2        220  -0.650000   15.99940
   221 HT         11 AGLC   HO2       221   0.420000    1.00800
   222 CC3161     11 AGLC   C3        222   0.140000   12.01100
   223 HCA1       11 AGLC   H3        223   0.090000    1.00800
   224 OC311      11 AGLC   O3        224  -0.650000   15.99940
   225 HT         11 AGLC   HO3       225   0.420000    1.00800
   226 CC3161     11 AGLC   C4        226   0.090000   12.01100
   227 HCA1       11 AGLC   H4        227   0.090000    1.00800
   228 OC3C61     11 AGLC   O4        228  -0.360000   15.99940
   229 CC321      11 AGLC   C6        229   0.050000   12.01100
   230 HCA2       11 AGLC   H61       230   0.090000    1.00800
   231 HCA2       11 AGLC   H62       231   0.090000    1.00800
   232 OC311      11 AGLC   O6        232  -0.650000   15.99940
   233 HT         11 AGLC   HO6       233   0.420000    1.00800
   234 CC3161     12 AGLC   C1        234   0.290000   12.01100
   235 HCA1       12 AGLC   H1        235   0.090000    1.00800
   236 CC3161     12 AGLC   C5        236   0.110000   12.01100
   237 HCA1       12 AGLC   H5        237   0.090000    1.00800
   238 OC3C61     12 AGLC   O5        238  -0.400000   15.99940
   239 CC3161     12 AGLC   C2        239   0.140000   12.01100
   240 HCA1       12 AGLC   H2        240   0.090000    1.00800
   241 OC311      12 AGLC   O2        241  -0.650000   15.99940
   242 HT         12 AGLC   HO2       242   0.420000    1.00800
   243 CC3161     12 AGLC   C3        243   0.140000   12.01100
   244 HCA1       12 AGLC   H3        244   0.090000    1.00800
   245 OC311      12 AGLC   O3        245  -0.650000   15.99940
   246 HT         12 AGLC   HO3       246   0.420000    1.00800
   247 CC3161     12 AGLC   C4        247   0.140000   12.01100
   248 HCA1       12 AGLC   H4        248   0.090000    1.00800
   249 OC311      12 AGLC   O4        249  -0.650000   15.99940
   250 HT         12 AGLC   HO4       250   0.420000    1.00800
   251 CC321      12 AGLC   C6        251   0.050000   12.01100
   252 HCA2       12 AGLC   H61       252   0.090000    1.00800
   253 HCA2       12 AGLC   H62       253   0.090000    1.00800
   254 OC311      12 AGLC   O6        254  -0.650000   15.99940
   255 HT         12 AGLC   HO6       255   0.420000    1.00800

[ bonds ]
1 3 1 1.400000e-01 3.581500e+05
1 7 1 1.425000e-01 3.012480e+05
1 8 1 1.480000e-01 1.861880e+05
5 7 1 1.425000e-01 3.012480e+05
16 5 1 1.500000e-01 1.861880e+05
5 19 1 1.490000e-01 1.861880e+05
8 10 1 1.410000e-01 3.430880e+05
8 12 1 1.480000e-01 1.861880e+05
12 14 1 1.410000e-01 3.430880e+05
12 16 1 1.480000e-01 1.861880e+05
16 18 1 1.415000e-01 3.012480e+05
18 24 1 1.395000e-01 3.012480e+05
19 22 1 1.420000e-01 3.581500e+05
24 28 1 1.425000e-01 3.012480e+05
24 29 1 1.480000e-01 1.861880e+05
26 28 1 1.425000e-01 3.012480e+05
37 26 1 1.500000e-01 1.861880e+05
26 40 1 1.490000e-01 1.861880e+05
29 31 1 1.410000e-01 3.430880e+05
29 33 1 1.480000e-01 1.861880e+05
33 35 1 1.410000e-01 3.430880e+05
33 37 1 1.480000e-01 1.861880e+05
37 39 1 1.415000e-01 3.012480e+05
39 45 1 1.395000e-01 3.012480e+05
40 43 1 1.420000e-01 3.581500e+05
45 49 1 1.425000e-01 3.012480e+05
45 50 1 1.480000e-01 1.861880e+05
47 49 1 1.425000e-01 3.012480e+05
58 47 1 1.500000e-01 1.861880e+05
47 61 1 1.490000e-01 1.861880e+05
50 52 1 1.410000e-01 3.430880e+05
50 54 1 1.480000e-01 1.861880e+05
54 56 1 1.410000e-01 3.430880e+05
54 58 1 1.480000e-01 1.861880e+05
58 60 1 1.415000e-01 3.012480e+05
60 66 1 1.395000e-01 3.012480e+05
61 64 1 1.420000e-01 3.581500e+05
66 70 1 1.425000e-01 3.012480e+05
66 71 1 1.480000e-01 1.861880e+05
68 70 1 1.425000e-01 3.012480e+05
79 68 1 1.500000e-01 1.861880e+05
68 82 1 1.490000e-01 1.861880e+05
71 73 1 1.410000e-01 3.430880e+05
71 75 1 1.480000e-01 1.861880e+05
75 77 1 1.410000e-01 3.430880e+05
75 79 1 1.480000e-01 1.861880e+05
79 81 1 1.415000e-01 3.012480e+05
81 87 1 1.395000e-01 3.012480e+05
82 85 1 1.420000e-01 3.581500e+05
87 91 1 1.425000e-01 3.012480e+05
87 92 1 1.480000e-01 1.861880e+05
89 91 1 1.425000e-01 3.012480e+05
100 89 1 1.500000e-01 1.861880e+05
89 103 1 1.490000e-01 1.861880e+05
92 94 1 1.410000e-01 3.430880e+05
92 96 1 1.480000e-01 1.861880e+05
96 98 1 1.410000e-01 3.430880e+05
96 100 1 1.480000e-01 1.861880e+05
100 102 1 1.415000e-01 3.012480e+05
102 108 1 1.395000e-01 3.012480e+05
103 106 1 1.420000e-01 3.581500e+05
108 112 1 1.425000e-01 3.012480e+05
108 113 1 1.480000e-01 1.861880e+05
110 112 1 1.425000e-01 3.012480e+05
121 110 1 1.500000e-01 1.861880e+05
110 124 1 1.490000e-01 1.861880e+05
113 115 1 1.410000e-01 3.430880e+05
113 117 1 1.480000e-01 1.861880e+05
117 119 1 1.410000e-01 3.430880e+05
117 121 1 1.480000e-01 1.861880e+05
121 123 1 1.415000e-01 3.012480e+05
123 129 1 1.395000e-01 3.012480e+05
124 127 1 1.420000e-01 3.581500e+05
129 133 1 1.425000e-01 3.012480e+05
129 134 1 1.480000e-01 1.861880e+05
131 133 1 1.425000e-01 3.012480e+05
142 131 1 1.500000e-01 1.861880e+05
131 145 1 1.490000e-01 1.861880e+05
134 136 1 1.410000e-01 3.430880e+05
134 138 1 1.480000e-01 1.861880e+05
138 140 1 1.410000e-01 3.430880e+05
138 142 1 1.480000e-01 1.861880e+05
142 144 1 1.415000e-01 3.012480e+05
144 150 1 1.395000e-01 3.012480e+05
145 148 1 1.420000e-01 3.581500e+05
150 154 1 1.425000e-01 3.012480e+05
150 155 1 1.480000e-01 1.861880e+05
152 154 1 1.425000e-01 3.012480e+05
163 152 1 1.500000e-01 1.861880e+05
152 166 1 1.490000e-01 1.861880e+05
155 157 1 1.410000e-01 3.430880e+05
155 159 1 1.480000e-01 1.861880e+05
159 161 1 1.410000e-01 3.430880e+05
159 163 1 1.480000e-01 1.861880e+05
163 165 1 1.415000e-01 3.012480e+05
165 171 1 1.395000e-01 3.012480e+05
166 169 1 1.420000e-01 3.581500e+05
171 175 1 1.425000e-01 3.012480e+05
171 176 1 1.480000e-01 1.861880e+05
173 175 1 1.425000e-01 3.012480e+05
184 173 1 1.500000e-01 1.861880e+05
173 187 1 1.490000e-01 1.861880e+05
176 178 1 1.410000e-01 3.430880e+05
176 180 1 1.480000e-01 1.861880e+05
180 182 1 1.410000e-01 3.430880e+05
180 184 1 1.480000e-01 1.861880e+05
184 186 1 1.415000e-01 3.012480e+05
186 192 1 1.395000e-01 3.012480e+05
187 190 1 1.420000e-01 3.581500e+05
192 196 1 1.425000e-01 3.012480e+05
192 197 1 1.480000e-01 1.861880e+05
194 196 1 1.425000e-01 3.012480e+05
205 194 1 1.500000e-01 1.861880e+05
194 208 1 1.490000e-01 1.861880e+05
197 199 1 1.410000e-01 3.430880e+05
197 201 1 1.480000e-01 1.861880e+05
201 203 1 1.410000e-01 3.430880e+05
201 205 1 1.480000e-01 1.861880e+05
205 207 1 1.415000e-01 3.012480e+05
207 213 1 1.395000e-01 3.012480e+05
208 211 1 1.420000e-01 3.581500e+05
213 217 1 1.425000e-01 3.012480e+05
213 218 1 1.480000e-01 1.861880e+05
215 217 1 1.425000e-01 3.012480e+05
226 215 1 1.500000e-01 1.861880e+05
215 229 1 1.490000e-01 1.861880e+05
218 220 1 1.410000e-01 3.430880e+05
218 222 1 1.480000e-01 1.861880e+05
222 224 1 1.410000e-01 3.430880e+05
222 226 1 1.480000e-01 1.861880e+05
226 228 1 1.415000e-01 3.012480e+05
228 234 1 1.395000e-01 3.012480e+05
229 232 1 1.420000e-01 3.581500e+05
234 238 1 1.425000e-01 3.012480e+05
234 239 1 1.480000e-01 1.861880e+05
236 238 1 1.425000e-01 3.012480e+05
247 236 1 1.500000e-01 1.861880e+05
236 251 1 1.490000e-01 1.861880e+05
239 241 1 1.410000e-01 3.430880e+05
239 243 1 1.480000e-01 1.861880e+05
243 245 1 1.410000e-01 3.430880e+05
243 247 1 1.480000e-01 1.861880e+05
247 249 1 1.410000e-01 3.430880e+05
251 254 1 1.420000e-01 3.581500e+05

[ angles ]
2 1 3 5 1.08889999e+02 4.60239990e+02 0.00000000e+00 0.00000000e+00
2 1 7 5 1.09500000e+02 3.76559998e+02 0.00000000e+00 0.00000000e+00
2 1 8 5 1.10099998e+02 2.88696014e+02 2.17899993e-01 1.88531035e+04
3 1 7 5 1.16500000e+02 3.76559998e+02 0.00000000e+00 0.00000000e+00
3 1 8 5 1.07000000e+02 6.33457581e+02 0.00000000e+00 0.00000000e+00
7 1 8 5 1.06000000e+02 3.76559998e+02 0.00000000e+00 0.00000000e+00
1 3 4 5 1.09000000e+02 4.18399994e+02 0.00000000e+00 0.00000000e+00
6 5 7 5 1.09500000e+02 3.76559998e+02 0.00000000e+00 0.00000000e+00
6 5 16 5 1.10099998e+02 2.88696014e+02 2.17899993e-01 1.88531035e+04
6 5 19 5 1.10099998e+02 2.88696014e+02 2.17899993e-01 1.88531035e+04
7 5 16 5 1.10000000e+02 3.76559998e+02 0.00000000e+00 0.00000000e+00
7 5 19 5 1.09000000e+02 3.76559998e+02 0.00000000e+00 0.00000000e+00
16 5 19 5 1.13500000e+02 4.88272797e+02 2.56099999e-01 9.33868848e+03
1 7 5 5 1.09699997e+02 7.94960022e+02 0.00000000e+00 0.00000000e+00
1 8 9 5 1.10099998e+02 2.88696014e+02 2.17899993e-01 1.88531035e+04
1 8 10 5 1.10099998e+02 6.33457581e+02 0.00000000e+00 0.00000000e+00
1 8 12 5 1.11000000e+02 4.46432800e+02 2.56099999e-01 6.69439990e+03
9 8 10 5 1.08889999e+02 4.60239990e+02 0.00000000e+00 0.00000000e+00
9 8 12 5 1.10099998e+02 2.88696014e+02 2.17899993e-01 1.88531035e+04
10 8 12 5 1.10099998e+02 6.33457581e+02 0.00000000e+00 0.00000000e+00
8 10 11 5 1.09000000e+02 4.18399994e+02 0.00000000e+00 0.00000000e+00
8 12 13 5 1.10099998e+02 2.88696014e+02 2.17899993e-01 1.88531035e+04
8 12 14 5 1.10099998e+02 6.33457581e+02 0.00000000e+00 0.00000000e+00
8 12 16 5 1.11000000e+02 4.46432800e+02 2.56099999e-01 6.69439990e+03
13 12 14 5 1.08889999e+02 4.60239990e+02 0.00000000e+00 0.00000000e+00
13 12 16 5 1.10099998e+02 2.88696014e+02 2.17899993e-01 1.88531035e+04
14 12 16 5 1.10099998e+02 6.33457581e+02 0.00000000e+00 0.00000000e+00
12 14 15 5 1.09000000e+02 4.18399994e+02 0.00000000e+00 0.00000000e+00
5 16 12 5 1.11000000e+02 4.46432800e+02 2.56099999e-01 6.69439990e+03
5 16 17 5 1.10099998e+02 2.88696014e+02 2.17899993e-01 1.88531035e+04
5 16 18 5 1.09000000e+02 3.76559998e+02 0.00000000e+00 0.00000000e+00
12 16 17 5 1.10099998e+02 2.88696014e+02 2.17899993e-01 1.88531035e+04
12 16 18 5 1.09000000e+02 3.76559998e+02 0.00000000e+00 0.00000000e+00
17 16 18 5 1.09500000e+02 5.02079987e+02 0.00000000e+00 0.00000000e+00
16 18 24 5 1.09199997e+02 4.18399994e+02 0.00000000e+00 0.00000000e+00
5 19 20 5 1.10099998e+02 2.79742249e+02 2.17899993e-01 1.88531035e+04
5 19 21 5 1.10099998e+02 2.79742249e+02 2.17899993e-01 1.88531035e+04
5 19 22 5 1.10099998e+02 6.33457581e+02 0.00000000e+00 0.00000000e+00
20 19 21 5 1.09000000e+02 2.97063995e+02 1.80199996e-01 4.51872021e+03
20 19 22 5 1.08889999e+02 4.60239990e+02 0.00000000e+00 0.00000000e+00
21 19 22 5 1.08889999e+02 4.60239990e+02 0.00000000e+00 0.00000000e+00
19 22 23 5 1.09000000e+02 4.18399994e+02 0.00000000e+00 0.00000000e+00
18 24 25 5 1.09500000e+02 5.02079987e+02 0.00000000e+00 0.00000000e+00
18 24 28 5 1.12000000e+02 7.53119995e+02 0.00000000e+00 0.00000000e+00
18 24 29 5 1.05000000e+02 3.76559998e+02 0.00000000e+00 0.00000000e+00
25 24 28 5 1.09500000e+02 3.76559998e+02 0.00000000e+00 0.00000000e+00
25 24 29 5 1.10099998e+02 2.88696014e+02 2.17899993e-01 1.88531035e+04
28 24 29 5 1.06000000e+02 3.76559998e+02 0.00000000e+00 0.00000000e+00
27 26 28 5 1.09500000e+02 3.76559998e+02 0.00000000e+00 0.00000000e+00
27 26 37 5 1.10099998e+02 2.88696014e+02 2.17899993e-01 1.88531035e+04
27 26 40 5 1.10099998e+02 2.88696014e+02 2.17899993e-01 1.88531035e+04
28 26 37 5 1.10000000e+02 3.76559998e+02 0.00000000e+00 0.00000000e+00
28 26 40 5 1.09000000e+02 3.76559998e+02 0.00000000e+00 0.00000000e+00
37 26 40 5 1.13500000e+02 4.88272797e+02 2.56099999e-01 9.33868848e+03
24 28 26 5 1.09699997e+02 7.94960022e+02 0.00000000e+00 0.00000000e+00
24 29 30 5 1.10099998e+02 2.88696014e+02 2.17899993e-01 1.88531035e+04
24 29 31 5 1.10099998e+02 6.33457581e+02 0.00000000e+00 0.00000000e+00
24 29 33 5 1.11000000e+02 4.46432800e+02 2.56099999e-01 6.69439990e+03
30 29 31 5 1.08889999e+02 4.60239990e+02 0.00000000e+00 0.00000000e+00
30 29 33 5 1.10099998e+02 2.88696014e+02 2.17899993e-01 1.88531035e+04
31 29 33 5 1.10099998e+02 6.33457581e+02 0.00000000e+00 0.00000000e+00
29 31 32 5 1.09000000e+02 4.18399994e+02 0.00000000e+00 0.00000000e+00
29 33 34 5 1.10099998e+02 2.88696014e+02 2.17899993e-01 1.88531035e+04
29 33 35 5 1.10099998e+02 6.33457581e+02 0.00000000e+00 0.00000000e+00
29 33 37 5 1.11000000e+02 4.46432800e+02 2.56099999e-01 6.69439990e+03
34 33 35 5 1.08889999e+02 4.60239990e+02 0.00000000e+00 0.00000000e+00
34 33 37 5 1.10099998e+02 2.88696014e+02 2.17899993e-01 1.88531035e+04
35 33 37 5 1.10099998e+02 6.33457581e+02 0.00000000e+00 0.00000000e+00
33 35 36 5 1.09000000e+02 4.18399994e+02 0.00000000e+00 0.00000000e+00
26 37 33 5 1.11000000e+02 4.46432800e+02 2.56099999e-01 6.69439990e+03
26 37 38 5 1.10099998e+02 2.88696014e+02 2.17899993e-01 1.88531035e+04
26 37 39 5 1.09000000e+02 3.76559998e+02 0.00000000e+00 0.00000000e+00
33 37 38 5 1.10099998e+02 2.88696014e+02 2.17899993e-01 1.88531035e+04
33 37 39 5 1.09000000e+02 3.76559998e+02 0.00000000e+00 0.00000000e+00
38 37 39 5 1.09500000e+02 5.02079987e+02 0.00000000e+00 0.00000000e+00
37 39 45 5 1.09199997e+02 4.18399994e+02 0.00000000e+00 0.00000000e+00
26 40 41 5 1.10099998e+02 2.79742249e+02 2.17899993e-01 1.88531035e+04
26 40 42 5 1.10099998e+02 2.79742249e+02 2.17899993e-01 1.88531035e+04
26 40 43 5 1.10099998e+02 6.33457581e+02 0.00000000e+00 0.00000000e+00
41 40 42 5 1.09000000e+02 2.97063995e+02 1.80199996e-01 4.51872021e+03
41 40 43 5 1.08889999e+02 4.60239990e+02 0.00000000e+00 0.00000000e+00
42 40 43 5 1.08889999e+02 4.60239990e+02 0.00000000e+00 0.00000000e+00
40 43 44 5 1.09000000e+02 4.18399994e+02 0.00000000e+00 0.00000000e+00
39 45 46 5 1.09500000e+02 5.02079987e+02 0.00000000e+00 0.00000000e+00
39 45 49 5 1.12000000e+02 7.53119995e+02 0.00000000e+00 0.00000000e+00
39 45 50 5 1.05000000e+02 3.76559998e+02 0.00000000e+00 0.00000000e+00
46 45 49 5 1.09500000e+02 3.76559998e+02 0.00000000e+00 0.00000000e+00
46 45 50 5 1.10099998e+02 2.88696014e+02 2.17899993e-01 1.88531035e+04
49 45 50 5 1.06000000e+02 3.76559998e+02 0.00000000e+00 0.00000000e+00
48 47 49 5 1.09500000e+02 3.76559998e+02 0.00000000e+00 0.00000000e+00
48 47 58 5 1.10099998e+02 2.88696014e+02 2.17899993e-01 1.88531035e+04
48 47 61 5 1.10099998e+02 2.88696014e+02 2.17899993e-01 1.88531035e+04
49 47 58 5 1.10000000e+02 3.76559998e+02 0.00000000e+00 0.00000000e+00
49 47 61 5 1.09000000e+02 3.76559998e+02 0.00000000e+00 0.00000000e+00
58 47 61 5 1.13500000e+02 4.88272797e+02 2.56099999e-01 9.33868848e+03
45 49 47 5 1.09699997e+02 7.94960022e+02 0.00000000e+00 0.00000000e+00
45 50 51 5 1.10099998e+02 2.88696014e+02 2.17899993e-01 1.88531035e+04
45 50 52 5 1.10099998e+02 6.33457581e+02 0.00000000e+00 0.00000000e+00
45 50 54 5 1.11000000e+02 4.46432800e+02 2.56099999e-01 6.69439990e+03
51 50 52 5 1.08889999e+02 4.60239990e+02 0.00000000e+00 0.00000000e+00
51 50 54 5 1.10099998e+02 2.88696014e+02 2.17899993e-01 1.88531035e+04
52 50 54 5 1.10099998e+02 6.33457581e+02 0.00000000e+00 0.00000000e+00
50 52 53 5 1.09000000e+02 4.18399994e+02 0.00000000e+00 0.00000000e+00
50 54 55 5 1.10099998e+02 2.88696014e+02 2.17899993e-01 1.88531035e+04
50 54 56 5 1.10099998e+02 6.33457581e+02 0.00000000e+00 0.00000000e+00
50 54 58 5 1.11000000e+02 4.46432800e+02 2.56099999e-01 6.69439990e+03
55 54 56 5 1.08889999e+02 4.60239990e+02 0.00000000e+00 0.00000000e+00
55 54 58 5 1.10099998e+02 2.88696014e+02 2.17899993e-01 1.88531035e+04
56 54 58 5 1.10099998e+02 6.33457581e+02 0.00000000e+00 0.00000000e+00
54 56 57 5 1.09000000e+02 4.18399994e+02 0.00000000e+00 0.00000000e+00
47 58 54 5 1.11000000e+02 4.46432800e+02 2.56099999e-01 6.69439990e+03
47 58 59 5 1.10099998e+02 2.88696014e+02 2.17899993e-01 1.88531035e+04
47 58 60 5 1.09000000e+02 3.76559998e+02 0.00000000e+00 0.00000000e+00
54 58 59 5 1.10099998e+02 2.88696014e+02 2.17899993e-01 1.88531035e+04
54 58 60 5 1.09000000e+02 3.76559998e+02 0.00000000e+00 0.00000000e+00
59 58 60 5 1.09500000e+02 5.02079987e+02 0.00000000e+00 0.00000000e+00
58 60 66 5 1.09199997e+02 4.18399994e+02 0.00000000e+00 0.00000000e+00
47 61 62 5 1.10099998e+02 2.79742249e+02 2.17899993e-01 1.88531035e+04
47 61 63 5 1.10099998e+02 2.79742249e+02 2.17899993e-01 1.88531035e+04
47 61 64 5 1.10099998e+02 6.33457581e+02 0.00000000e+00 0.00000000e+00
62 61 63 5 1.09000000e+02 2.97063995e+02 1.80199996e-01 4.51872021e+03
62 61 64 5 1.08889999e+02 4.60239990e+02 0.00000000e+00 0.00000000e+00
63 61 64 5 1.08889999e+02 4.60239990e+02 0.00000000e+00 0.00000000e+00
61 64 65 5 1.09000000e+02 4.18399994e+02 0.00000000e+00 0.00000000e+00
60 66 67 5 1.09500000e+02 5.02079987e+02 0.00000000e+00 0.00000000e+00
60 66 70 5 1.12000000e+02 7.53119995e+02 0.00000000e+00 0.00000000e+00
60 66 71 5 1.05000000e+02 3.76559998e+02 0.00000000e+00 0.00000000e+00
67 66 70 5 1.09500000e+02 3.76559998e+02 0.00000000e+00 0.00000000e+00
67 66 71 5 1.10099998e+02 2.88696014e+02 2.17899993e-01 1.88531035e+04
70 66 71 5 1.06000000e+02 3.76559998e+02 0.00000000e+00 0.00000000e+00
69 68 70 5 1.09500000e+02 3.76559998e+02 0.00000000e+00 0.00000000e+00
69 68 79 5 1.10099998e+02 2.88696014e+02 2.17899993e-01 1.88531035e+04
69 68 82 5 1.10099998e+02 2.88696014e+02 2.17899993e-01 1.88531035e+04
70 68 79 5 1.10000000e+02 3.76559998e+02 0.00000000e+00 0.00000000e+00
70 68 82 5 1.09000000e+02 3.76559998e+02 0.00000000e+00 0.00000000e+00
79 68 82 5 1.13500000e+02 4.88272797e+02 2.56099999e-01 9.33868848e+03
66 70 68 5 1.09699997e+02 7.94960022e+02 0.00000000e+00 0.00000000e+00
66 71 72 5 1.10099998e+02 2.88696014e+02 2.17899993e-01 1.88531035e+04
66 71 73 5 1.10099998e+02 6.33457581e+02 0.00000000e+00 0.00000000e+00
66 71 75 5 1.11000000e+02 4.46432800e+02 2.56099999e-01 6.69439990e+03
72 71 73 5 1.08889999e+02 4.60239990e+02 0.00000000e+00 0.00000000e+00
72 71 75 5 1.10099998e+02 2.88696014e+02 2.17899993e-01 1.88531035e+04
73 71 75 5 1.10099998e+02 6.33457581e+02 0.00000000e+00 0.00000000e+00
71 73 74 5 1.09000000e+02 4.18399994e+02 0.00000000e+00 0.00000000e+00
71 75 76 5 1.10099998e+02 2.88696014e+02 2.17899993e-01 1.88531035e+04
71 75 77 5 1.10099998e+02 6.33457581e+02 0.00000000e+00 0.00000000e+00
71 75 79 5 1.11000000e+02 4.46432800e+02 2.56099999e-01 6.69439990e+03
76 75 77 5 1.08889999e+02 4.60239990e+02 0.00000000e+00 0.00000000e+00
76 75 79 5 1.10099998e+02 2.88696014e+02 2.17899993e-01 1.88531035e+04
77 75 79 5 1.10099998e+02 6.33457581e+02 0.00000000e+00 0.00000000e+00
75 77 78 5 1.09000000e+02 4.18399994e+02 0.00000000e+00 0.00000000e+00
68 79 75 5 1.11000000e+02 4.46432800e+02 2.56099999e-01 6.69439990e+03
68 79 80 5 1.10099998e+02 2.88696014e+02 2.17899993e-01 1.88531035e+04
68 79 81 5 1.09000000e+02 3.76559998e+02 0.00000000e+00 0.00000000e+00
75 79 80 5 1.10099998e+02 2.88696014e+02 2.17899993e-01 1.88531035e+04
75 79 81 5 1.09000000e+02 3.76559998e+02 0.00000000e+00 0.00000000e+00
80 79 81 5 1.09500000e+02 5.02079987e+02 0.00000000e+00 0.00000000e+00
79 81 87 5 1.09199997e+02 4.18399994e+02 0.00000000e+00 0.00000000e+00
68 82 83 5 1.10099998e+02 2.79742249e+02 2.17899993e-01 1.88531035e+04
68 82 84 5 1.10099998e+02 2.79742249e+02 2.17899993e-01 1.88531035e+04
68 82 85 5 1.10099998e+02 6.33457581e+02 0.00000000e+00 0.00000000e+00
83 82 84 5 1.09000000e+02 2.97063995e+02 1.80199996e-01 4.51872021e+03
83 82 85 5 1.08889999e+02 4.60239990e+02 0.00000000e+00 0.00000000e+00
84 82 85 5 1.08889999e+02 4.60239990e+02 0.00000000e+00 0.00000000e+00
82 85 86 5 1.09000000e+02 4.18399994e+02 0.00000000e+00 0.00000000e+00
81 87 88 5 1.09500000e+02 5.02079987e+02 0.00000000e+00 0.00000000e+00
81 87 91 5 1.12000000e+02 7.53119995e+02 0.00000000e+00 0.00000000e+00
81 87 92 5 1.05000000e+02 3.76559998e+02 0.00000000e+00 0.00000000e+00
88 87 91 5 1.09500000e+02 3.76559998e+02 0.00000000e+00 0.00000000e+00
88 87 92 5 1.10099998e+02 2.88696014e+02 2.17899993e-01 1.88531035e+04
91 87 92 5 1.06000000e+02 3.76559998e+02 0.00000000e+00 0.00000000e+00
90 89 91 5 1.09500000e+02 3.76559998e+02 0.00000000e+00 0.00000000e+00
90 89 100 5 1.10099998e+02 2.88696014e+02 2.17899993e-01 1.88531035e+04
90 89 103 5 1.10099998e+02 2.88696014e+02 2.17899993e-01 1.88531035e+04
91 89 100 5 1.10000000e+02 3.76559998e+02 0.00000000e+00 0.00000000e+00
91 89 103 5 1.09000000e+02 3.76559998e+02 0.00000000e+00 0.00000000e+00
100 89 103 5 1.13500000e+02 4.88272797e+02 2.56099999e-01 9.33868848e+03
87 91 89 5 1.09699997e+02 7.94960022e+02 0.00000000e+00 0.00000000e+00
87 92 93 5 1.10099998e+02 2.88696014e+02 2.17899993e-01 1.88531035e+04
87 92 94 5 1.10099998e+02 6.33457581e+02 0.00000000e+00 0.00000000e+00
87 92 96 5 1.11000000e+02 4.46432800e+02 2.56099999e-01 6.69439990e+03
93 92 94 5 1.08889999e+02 4.60239990e+02 0.00000000e+00 0.00000000e+00
93 92 96 5 1.10099998e+02 2.88696014e+02 2.17899993e-01 1.88531035e+04
94 92 96 5 1.10099998e+02 6.33457581e+02 0.00000000e+00 0.00000000e+00
92 94 95 5 1.09000000e+02 4.18399994e+02 0.00000000e+00 0.00000000e+00
92 96 97 5 1.10099998e+02 2.88696014e+02 2.17899993e-01 1.88531035e+04
92 96 98 5 1.10099998e+02 6.33457581e+02 0.00000000e+00 0.00000000e+00
92 96 100 5 1.11000000e+02 4.46432800e+02 2.56099999e-01 6.69439990e+03
97 96 98 5 1.08889999e+02 4.60239990e+02 0.00000000e+00 0.00000000e+00
97 96 100 5 1.10099998e+02 2.88696014e+02 2.17899993e-01 1.88531035e+04
98 96 100 5 1.10099998e+02 6.33457581e+02 0.00000000e+00 0.00000000e+00
96 98 99 5 1.09000000e+02 4.18399994e+02 0.00000000e+00 0.00000000e+00
89 100 96 5 1.11000000e+02 4.46432800e+02 2.56099999e-01 6.69439990e+03
89 100 101 5 1.10099998e+02 2.88696014e+02 2.17899993e-01 1.88531035e+04
89 100 102 5 1.09000000e+02 3.76559998e+02 0.00000000e+00 0.00000000e+00
96 100 101 5 1.10099998e+02 2.88696014e+02 2.17899993e-01 1.88531035e+04
96 100 102 5 1.09000000e+02 3.76559998e+02 0.00000000e+00 0.00000000e+00
101 100 102 5 1.09500000e+02 5.02079987e+02 0.00000000e+00 0.00000000e+00
100 102 108 5 1.09199997e+02 4.18399994e+02 0.00000000e+00 0.00000000e+00
89 103 104 5 1.10099998e+02 2.79742249e+02 2.17899993e-01 1.88531035e+04
89 103 105 5 1.10099998e+02 2.79742249e+02 2.17899993e-01 1.88531035e+04
89 103 106 5 1.10099998e+02 6.33457581e+02 0.00000000e+00 0.00000000e+00
104 103 105 5 1.09000000e+02 2.97063995e+02 1.80199996e-01 4.51872021e+03
104 103 106 5 1.08889999e+02 4.60239990e+02 0.00000000e+00 0.00000000e+00
105 103 106 5 1.08889999e+02 4.60239990e+02 0.00000000e+00 0.00000000e+00
103 106 107 5 1.09000000e+02 4.18399994e+02 0.00000000e+00 0.00000000e+00
102 108 109 5 1.09500000e+02 5.02079987e+02 0.00000000e+00 0.00000000e+00
102 108 112 5 1.12000000e+02 7.53119995e+02 0.00000000e+00 0.00000000e+00
102 108 113 5 1.05000000e+02 3.76559998e+02 0.00000000e+00 0.00000000e+00
109 108 112 5 1.09500000e+02 3.76559998e+02 0.00000000e+00 0.00000000e+00
109 108 113 5 1.10099998e+02 2.88696014e+02 2.17899993e-01 1.88531035e+04
112 108 113 5 1.06000000e+02 3.76559998e+02 0.00000000e+00 0.00000000e+00
111 110 112 5 1.09500000e+02 3.76559998e+02 0.00000000e+00 0.00000000e+00
111 110 121 5 1.10099998e+02 2.88696014e+02 2.17899993e-01 1.88531035e+04
111 110 124 5 1.10099998e+02 2.88696014e+02 2.17899993e-01 1.88531035e+04
112 110 121 5 1.10000000e+02 3.76559998e+02 0.00000000e+00 0.00000000e+00
112 110 124 5 1.09000000e+02 3.76559998e+02 0.00000000e+00 0.00000000e+00
121 110 124 5 1.13500000e+02 4.88272797e+02 2.56099999e-01 9.33868848e+03
108 112 110 5 1.09699997e+02 7.94960022e+02 0.00000000e+00 0.00000000e+00
108 113 114 5 1.10099998e+02 2.88696014e+02 2.17899993e-01 1.88531035e+04
108 113 115 5 1.10099998e+02 6.33457581e+02 0.00000000e+00 0.00000000e+00
108 113 117 5 1.11000000e+02 4.46432800e+02 2.56099999e-01 6.69439990e+03
114 113 115 5 1.08889999e+02 4.60239990e+02 0.00000000e+00 0.00000000e+00
114 113 117 5 1.10099998e+02 2.88696014e+02 2.17899993e-01 1.88531035e+04
115 113 117 5 1.10099998e+02 6.33457581e+02 0.00000000e+00 0.00000000e+00
113 115 116 5 1.09000000e+02 4.18399994e+02 0.00000000e+00 0.00000000e+00
113 117 118 5 1.10099998e+02 2.88696014e+02 2.17899993e-01 1.88531035e+04
113 117 119 5 1.10099998e+02 6.33457581e+02 0.00000000e+00 0.00000000e+00
113 117 121 5 1.11000000e+02 4.46432800e+02 2.56099999e-01 6.69439990e+03
118 117 119 5 1.08889999e+02 4.60239990e+02 0.00000000e+00 0.00000000e+00
118 117 121 5 1.10099998e+02 2.88696014e+02 2.17899993e-01 1.88531035e+04
119 117 121 5 1.10099998e+02 6.33457581e+02 0.00000000e+00 0.00000000e+00
117 119 120 5 1.09000000e+02 4.18399994e+02 0.00000000e+00 0.00000000e+00
110 121 117 5 1.11000000e+02 4.46432800e+02 2.56099999e-01 6.69439990e+03
110 121 122 5 1.10099998e+02 2.88696014e+02 2.17899993e-01 1.88531035e+04
110 121 123 5 1.09000000e+02 3.76559998e+02 0.00000000e+00 0.00000000e+00
117 121 122 5 1.10099998e+02 2.88696014e+02 2.17899993e-01 1.88531035e+04
117 121 123 5 1.09000000e+02 3.76559998e+02 0.00000000e+00 0.00000000e+00
122 121 123 5 1.09500000e+02 5.02079987e+02 0.00000000e+00 0.00000000e+00
121 123 129 5 1.09199997e+02 4.18399994e+02 0.00000000e+00 0.00000000e+00
110 124 125 5 1.10099998e+02 2.79742249e+02 2.17899993e-01 1.88531035e+04
110 124 126 5 1.10099998e+02 2.79742249e+02 2.17899993e-01 1.88531035e+04
110 124 127 5 1.10099998e+02 6.33457581e+02 0.00000000e+00 0.00000000e+00
125 124 126 5 1.09000000e+02 2.97063995e+02 1.80199996e-01 4.51872021e+03
125 124 127 5 1.08889999e+02 4.60239990e+02 0.00000000e+00 0.00000000e+00
126 124 127 5 1.08889999e+02 4.60239990e+02 0.00000000e+00 0.00000000e+00
124 127 128 5 1.09000000e+02 4.18399994e+02 0.00000000e+00 0.00000000e+00
123 129 130 5 1.09500000e+02 5.02079987e+02 0.00000000e+00 0.00000000e+00
123 129 133 5 1.12000000e+02 7.53119995e+02 0.00000000e+00 0.00000000e+00
123 129 134 5 1.05000000e+02 3.76559998e+02 0.00000000e+00 0.00000000e+00
130 129 133 5 1.09500000e+02 3.76559998e+02 0.00000000e+00 0.00000000e+00
130 129 134 5 1.10099998e+02 2.88696014e+02 2.17899993e-01 1.88531035e+04
133 129 134 5 1.06000000e+02 3.76559998e+02 0.00000000e+00 0.00000000e+00
132 131 133 5 1.09500000e+02 3.76559998e+02 0.00000000e+00 0.00000000e+00
132 131 142 5 1.10099998e+02 2.88696014e+02 2.17899993e-01 1.88531035e+04
132 131 145 5 1.10099998e+02 2.88696014e+02 2.17899993e-01 1.88531035e+04
133 131 142 5 1.10000000e+02 3.76559998e+02 0.00000000e+00 0.00000000e+00
133 131 145 5 1.09000000e+02 3.76559998e+02 0.00000000e+00 0.00000000e+00
142 131 145 5 1.13500000e+02 4.88272797e+02 2.56099999e-01 9.33868848e+03
129 133 131 5 1.09699997e+02 7.94960022e+02 0.00000000e+00 0.00000000e+00
129 134 135 5 1.10099998e+02 2.88696014e+02 2.17899993e-01 1.88531035e+04
129 134 136 5 1.10099998e+02 6.33457581e+02 0.00000000e+00 0.00000000e+00
129 134 138 5 1.11000000e+02 4.46432800e+02 2.56099999e-01 6.69439990e+03
135 134 136 5 1.08889999e+02 4.60239990e+02 0.00000000e+00 0.00000000e+00
135 134 138 5 1.10099998e+02 2.88696014e+02 2.17899993e-01 1.88531035e+04
136 134 138 5 1.10099998e+02 6.33457581e+02 0.00000000e+00 0.00000000e+00
134 136 137 5 1.09000000e+02 4.18399994e+02 0.00000000e+00 0.00000000e+00
134 138 139 5 1.10099998e+02 2.88696014e+02 2.17899993e-01 1.88531035e+04
134 138 140 5 1.10099998e+02 6.33457581e+02 0.00000000e+00 0.00000000e+00
134 138 142 5 1.11000000e+02 4.46432800e+02 2.56099999e-01 6.69439990e+03
139 138 140 5 1.08889999e+02 4.60239990e+02 0.00000000e+00 0.00000000e+00
139 138 142 5 1.10099998e+02 2.88696014e+02 2.17899993e-01 1.88531035e+04
140 138 142 5 1.10099998e+02 6.33457581e+02 0.00000000e+00 0.00000000e+00
138 140 141 5 1.09000000e+02 4.18399994e+02 0.00000000e+00 0.00000000e+00
131 142 138 5 1.11000000e+02 4.46432800e+02 2.56099999e-01 6.69439990e+03
131 142 143 5 1.10099998e+02 2.88696014e+02 2.17899993e-01 1.88531035e+04
131 142 144 5 1.09000000e+02 3.76559998e+02 0.00000000e+00 0.00000000e+00
138 142 143 5 1.10099998e+02 2.88696014e+02 2.17899993e-01 1.88531035e+04
138 142 144 5 1.09000000e+02 3.76559998e+02 0.00000000e+00 0.00000000e+00
143 142 144 5 1.09500000e+02 5.02079987e+02 0.00000000e+00 0.00000000e+00
142 144 150 5 1.09199997e+02 4.18399994e+02 0.00000000e+00 0.00000000e+00
131 145 146 5 1.10099998e+02 2.79742249e+02 2.17899993e-01 1.88531035e+04
131 145 147 5 1.10099998e+02 2.79742249e+02 2.17899993e-01 1.88531035e+04
131 145 148 5 1.10099998e+02 6.33457581e+02 0.00000000e+00 0.00000000e+00
146 145 147 5 1.09000000e+02 2.97063995e+02 1.80199996e-01 4.51872021e+03
146 145 148 5 1.08889999e+02 4.60239990e+02 0.00000000e+00 0.00000000e+00
147 145 148 5 1.08889999e+02 4.60239990e+02 0.00000000e+00 0.00000000e+00
145 148 149 5 1.09000000e+02 4.18399994e+02 0.00000000e+00 0.00000000e+00
144 150 151 5 1.09500000e+02 5.02079987e+02 0.00000000e+00 0.00000000e+00
144 150 154 5 1.12000000e+02 7.53119995e+02 0.00000000e+00 0.00000000e+00
144 150 155 5 1.05000000e+02 3.76559998e+02 0.00000000e+00 0.00000000e+00
151 150 154 5 1.09500000e+02 3.76559998e+02 0.00000000e+00 0.00000000e+00
151 150 155 5 1.10099998e+02 2.88696014e+02 2.17899993e-01 1.88531035e+04
154 150 155 5 1.06000000e+02 3.76559998e+02 0.00000000e+00 0.00000000e+00
153 152 154 5 1.09500000e+02 3.76559998e+02 0.00000000e+00 0.00000000e+00
153 152 163 5 1.10099998e+02 2.88696014e+02 2.17899993e-01 1.88531035e+04
153 152 166 5 1.10099998e+02 2.88696014e+02 2.17899993e-01 1.88531035e+04
154 152 163 5 1.10000000e+02 3.76559998e+02 0.00000000e+00 0.00000000e+00
154 152 166 5 1.09000000e+02 3.76559998e+02 0.00000000e+00 0.00000000e+00
163 152 166 5 1.13500000e+02 4.88272797e+02 2.56099999e-01 9.33868848e+03
150 154 152 5 1.09699997e+02 7.94960022e+02 0.00000000e+00 0.00000000e+00
150 155 156 5 1.10099998e+02 2.88696014e+02 2.17899993e-01 1.88531035e+04
150 155 157 5 1.10099998e+02 6.33457581e+02 0.00000000e+00 0.00000000e+00
150 155 159 5 1.11000000e+02 4.46432800e+02 2.56099999e-01 6.69439990e+03
156 155 157 5 1.08889999e+02 4.60239990e+02 0.00000000e+00 0.00000000e+00
156 155 159 5 1.10099998e+02 2.88696014e+02 2.17899993e-01 1.88531035e+04
157 155 159 5 1.10099998e+02 6.33457581e+02 0.00000000e+00 0.00000000e+00
155 157 158 5 1.09000000e+02 4.18399994e+02 0.00000000e+00 0.00000000e+00
155 159 160 5 1.10099998e+02 2.88696014e+02 2.17899993e-01 1.88531035e+04
155 159 161 5 1.10099998e+02 6.33457581e+02 0.00000000e+00 0.00000000e+00
155 159 163 5 1.11000000e+02 4.46432800e+02 2.56099999e-01 6.69439990e+03
160 159 161 5 1.08889999e+02 4.60239990e+02 0.00000000e+00 0.00000000e+00
160 159 163 5 1.10099998e+02 2.88696014e+02 2.17899993e-01 1.88531035e+04
161 159 163 5 1.10099998e+02 6.33457581e+02 0.00000000e+00 0.00000000e+00
159 161 162 5 1.09000000e+02 4.18399994e+02 0.00000000e+00 0.00000000e+00
152 163 159 5 1.11000000e+02 4.46432800e+02 2.56099999e-01 6.69439990e+03
152 163 164 5 1.10099998e+02 2.88696014e+02 2.17899993e-01 1.88531035e+04
152 163 165 5 1.09000000e+02 3.76559998e+02 0.00000000e+00 0.00000000e+00
159 163 164 5 1.10099998e+02 2.88696014e+02 2.17899993e-01 1.88531035e+04
159 163 165 5 1.09000000e+02 3.76559998e+02 0.00000000e+00 0.00000000e+00
164 163 165 5 1.09500000e+02 5.02079987e+02 0.00000000e+00 0.00000000e+00
163 165 171 5 1.09199997e+02 4.18399994e+02 0.00000000e+00 0.00000000e+00
152 166 167 5 1.10099998e+02 2.79742249e+02 2.17899993e-01 1.88531035e+04
152 166 168 5 1.10099998e+02 2.79742249e+02 2.17899993e-01 1.88531035e+04
152 166 169 5 1.10099998e+02 6.33457581e+02 0.00000000e+00 0.00000000e+00
167 166 168 5 1.09000000e+02 2.97063995e+02 1.80199996e-01 4.51872021e+03
167 166 169 5 1.08889999e+02 4.60239990e+02 0.00000000e+00 0.00000000e+00
168 166 169 5 1.08889999e+02 4.60239990e+02 0.00000000e+00 0.00000000e+00
166 169 170 5 1.09000000e+02 4.18399994e+02 0.00000000e+00 0.00000000e+00
165 171 172 5 1.09500000e+02 5.02079987e+02 0.00000000e+00 0.00000000e+00
165 171 175 5 1.12000000e+02 7.53119995e+02 0.00000000e+00 0.00000000e+00
165 171 176 5 1.05000000e+02 3.76559998e+02 0.00000000e+00 0.00000000e+00
172 171 175 5 1.09500000e+02 3.76559998e+02 0.00000000e+00 0.00000000e+00
172 171 176 5 1.10099998e+02 2.88696014e+02 2.17899993e-01 1.88531035e+04
175 171 176 5 1.06000000e+02 3.76559998e+02 0.00000000e+00 0.00000000e+00
174 173 175 5 1.09500000e+02 3.76559998e+02 0.00000000e+00 0.00000000e+00
174 173 184 5 1.10099998e+02 2.88696014e+02 2.17899993e-01 1.88531035e+04
174 173 187 5 1.10099998e+02 2.88696014e+02 2.17899993e-01 1.88531035e+04
175 173 184 5 1.10000000e+02 3.76559998e+02 0.00000000e+00 0.00000000e+00
175 173 187 5 1.09000000e+02 3.76559998e+02 0.00000000e+00 0.00000000e+00
184 173 187 5 1.13500000e+02 4.88272797e+02 2.56099999e-01 9.33868848e+03
171 175 173 5 1.09699997e+02 7.94960022e+02 0.00000000e+00 0.00000000e+00
171 176 177 5 1.10099998e+02 2.88696014e+02 2.17899993e-01 1.88531035e+04
171 176 178 5 1.10099998e+02 6.33457581e+02 0.00000000e+00 0.00000000e+00
171 176 180 5 1.11000000e+02 4.46432800e+02 2.56099999e-01 6.69439990e+03
177 176 178 5 1.08889999e+02 4.60239990e+02 0.00000000e+00 0.00000000e+00
177 176 180 5 1.10099998e+02 2.88696014e+02 2.17899993e-01 1.88531035e+04
178 176 180 5 1.10099998e+02 6.33457581e+02 0.00000000e+00 0.00000000e+00
176 178 179 5 1.09000000e+02 4.18399994e+02 0.00000000e+00 0.00000000e+00
176 180 181 5 1.10099998e+02 2.88696014e+02 2.17899993e-01 1.88531035e+04
176 180 182 5 1.10099998e+02 6.33457581e+02 0.00000000e+00 0.00000000e+00
176 180 184 5 1.11000000e+02 4.46432800e+02 2.56099999e-01 6.69439990e+03
181 180 182 5 1.08889999e+02 4.60239990e+02 0.00000000e+00 0.00000000e+00
181 180 184 5 1.10099998e+02 2.88696014e+02 2.17899993e-01 1.88531035e+04
182 180 184 5 1.10099998e+02 6.33457581e+02 0.00000000e+00 0.00000000e+00
180 182 183 5 1.09000000e+02 4.18399994e+02 0.00000000e+00 0.00000000e+00
173 184 180 5 1.11000000e+02 4.46432800e+02 2.56099999e-01 6.69439990e+03
173 184 185 5 1.10099998e+02 2.88696014e+02 2.17899993e-01 1.88531035e+04
173 184 186 5 1.09000000e+02 3.76559998e+02 0.00000000e+00 0.00000000e+00
180 184 185 5 1.10099998e+02 2.88696014e+02 2.17899993e-01 1.88531035e+04
180 184 186 5 1.09000000e+02 3.76559998e+02 0.00000000e+00 0.00000000e+00
185 184 186 5 1.09500000e+02 5.02079987e+02 0.00000000e+00 0.00000000e+00
184 186 192 5 1.09199997e+02 4.18399994e+02 0.00000000e+00 0.00000000e+00
173 187 188 5 1.10099998e+02 2.79742249e+02 2.17899993e-01 1.88531035e+04
173 187 189 5 1.10099998e+02 2.79742249e+02 2.17899993e-01 1.88531035e+04
173 187 190 5 1.10099998e+02 6.33457581e+02 0.00000000e+00 0.00000000e+00
188 187 189 5 1.09000000e+02 2.97063995e+02 1.80199996e-01 4.51872021e+03
188 187 190 5 1.08889999e+02 4.60239990e+02 0.00000000e+00 0.00000000e+00
189 187 190 5 1.08889999e+02 4.60239990e+02 0.00000000e+00 0.00000000e+00
187 190 191 5 1.09000000e+02 4.18399994e+02 0.00000000e+00 0.00000000e+00
186 192 193 5 1.09500000e+02 5.02079987e+02 0.00000000e+00 0.00000000e+00
186 192 196 5 1.12000000e+02 7.53119995e+02 0.00000000e+00 0.00000000e+00
186 192 197 5 1.05000000e+02 3.76559998e+02 0.00000000e+00 0.00000000e+00
193 192 196 5 1.09500000e+02 3.76559998e+02 0.00000000e+00 0.00000000e+00
193 192 197 5 1.10099998e+02 2.88696014e+02 2.17899993e-01 1.88531035e+04
196 192 197 5 1.06000000e+02 3.76559998e+02 0.00000000e+00 0.00000000e+00
195 194 196 5 1.09500000e+02 3.76559998e+02 0.00000000e+00 0.00000000e+00
195 194 205 5 1.10099998e+02 2.88696014e+02 2.17899993e-01 1.88531035e+04
195 194 208 5 1.10099998e+02 2.88696014e+02 2.17899993e-01 1.88531035e+04
196 194 205 5 1.10000000e+02 3.76559998e+02 0.00000000e+00 0.00000000e+00
196 194 208 5 1.09000000e+02 3.76559998e+02 0.00000000e+00 0.00000000e+00
205 194 208 5 1.13500000e+02 4.88272797e+02 2.56099999e-01 9.33868848e+03
192 196 194 5 1.09699997e+02 7.94960022e+02 0.00000000e+00 0.00000000e+00
192 197 198 5 1.10099998e+02 2.88696014e+02 2.17899993e-01 1.88531035e+04
192 197 199 5 1.10099998e+02 6.33457581e+02 0.00000000e+00 0.00000000e+00
192 197 201 5 1.11000000e+02 4.46432800e+02 2.56099999e-01 6.69439990e+03
198 197 199 5 1.08889999e+02 4.60239990e+02 0.00000000e+00 0.00000000e+00
198 197 201 5 1.10099998e+02 2.88696014e+02 2.17899993e-01 1.88531035e+04
199 197 201 5 1.10099998e+02 6.33457581e+02 0.00000000e+00 0.00000000e+00
197 199 200 5 1.09000000e+02 4.18399994e+02 0.00000000e+00 0.00000000e+00
197 201 202 5 1.10099998e+02 2.88696014e+02 2.17899993e-01 1.88531035e+04
197 201 203 5 1.10099998e+02 6.33457581e+02 0.00000000e+00 0.00000000e+00
197 201 205 5 1.11000000e+02 4.46432800e+02 2.56099999e-01 6.69439990e+03
202 201 203 5 1.08889999e+02 4.60239990e+02 0.00000000e+00 0.00000000e+00
202 201 205 5 1.10099998e+02 2.88696014e+02 2.17899993e-01 1.88531035e+04
203 201 205 5 1.10099998e+02 6.33457581e+02 0.00000000e+00 0.00000000e+00
201 203 204 5 1.09000000e+02 4.18399994e+02 0.00000000e+00 0.00000000e+00
194 205 201 5 1.11000000e+02 4.46432800e+02 2.56099999e-01 6.69439990e+03
194 205 206 5 1.10099998e+02 2.88696014e+02 2.17899993e-01 1.88531035e+04
194 205 207 5 1.09000000e+02 3.76559998e+02 0.00000000e+00 0.00000000e+00
201 205 206 5 1.10099998e+02 2.88696014e+02 2.17899993e-01 1.88531035e+04
201 205 207 5 1.09000000e+02 3.76559998e+02 0.00000000e+00 0.00000000e+00
206 205 207 5 1.09500000e+02 5.02079987e+02 0.00000000e+00 0.00000000e+00
205 207 213 5 1.09199997e+02 4.18399994e+02 0.00000000e+00 0.00000000e+00
194 208 209 5 1.10099998e+02 2.79742249e+02 2.17899993e-01 1.88531035e+04
194 208 210 5 1.10099998e+02 2.79742249e+02 2.17899993e-01 1.88531035e+04
194 208 211 5 1.10099998e+02 6.33457581e+02 0.00000000e+00 0.00000000e+00
209 208 210 5 1.09000000e+02 2.97063995e+02 1.80199996e-01 4.51872021e+03
209 208 211 5 1.08889999e+02 4.60239990e+02 0.00000000e+00 0.00000000e+00
210 208 211 5 1.08889999e+02 4.60239990e+02 0.00000000e+00 0.00000000e+00
208 211 212 5 1.09000000e+02 4.18399994e+02 0.00000000e+00 0.00000000e+00
207 213 214 5 1.09500000e+02 5.02079987e+02 0.00000000e+00 0.00000000e+00
207 213 217 5 1.12000000e+02 7.53119995e+02 0.00000000e+00 0.00000000e+00
207 213 218 5 1.05000000e+02 3.76559998e+02 0.00000000e+00 0.00000000e+00
214 213 217 5 1.09500000e+02 3.76559998e+02 0.00000000e+00 0.00000000e+00
214 213 218 5 1.10099998e+02 2.88696014e+02 2.17899993e-01 1.88531035e+04
217 213 218 5 1.06000000e+02 3.76559998e+02 0.00000000e+00 0.00000000e+00
216 215 217 5 1.09500000e+02 3.76559998e+02 0.00000000e+00 0.00000000e+00
216 215 226 5 1.10099998e+02 2.88696014e+02 2.17899993e-01 1.88531035e+04
216 215 229 5 1.10099998e+02 2.88696014e+02 2.17899993e-01 1.88531035e+04
217 215 226 5 1.10000000e+02 3.76559998e+02 0.00000000e+00 0.00000000e+00
217 215 229 5 1.09000000e+02 3.76559998e+02 0.00000000e+00 0.00000000e+00
226 215 229 5 1.13500000e+02 4.88272797e+02 2.56099999e-01 9.33868848e+03
213 217 215 5 1.09699997e+02 7.94960022e+02 0.00000000e+00 0.00000000e+00
213 218 219 5 1.10099998e+02 2.88696014e+02 2.17899993e-01 1.88531035e+04
213 218 220 5 1.10099998e+02 6.33457581e+02 0.00000000e+00 0.00000000e+00
213 218 222 5 1.11000000e+02 4.46432800e+02 2.56099999e-01 6.69439990e+03
219 218 220 5 1.08889999e+02 4.60239990e+02 0.00000000e+00 0.00000000e+00
219 218 222 5 1.10099998e+02 2.88696014e+02 2.17899993e-01 1.88531035e+04
220 218 222 5 1.10099998e+02 6.33457581e+02 0.00000000e+00 0.00000000e+00
218 220 221 5 1.09000000e+02 4.18399994e+02 0.00000000e+00 0.00000000e+00
218 222 223 5 1.10099998e+02 2.88696014e+02 2.17899993e-01 1.88531035e+04
218 222 224 5 1.10099998e+02 6.33457581e+02 0.00000000e+00 0.00000000e+00
218 222 226 5 1.11000000e+02 4.46432800e+02 2.56099999e-01 6.69439990e+03
223 222 224 5 1.08889999e+02 4.60239990e+02 0.00000000e+00 0.00000000e+00
223 222 226 5 1.10099998e+02 2.88696014e+02 2.17899993e-01 1.88531035e+04
224 222 226 5 1.10099998e+02 6.33457581e+02 0.00000000e+00 0.00000000e+00
222 224 225 5 1.09000000e+02 4.18399994e+02 0.00000000e+00 0.00000000e+00
215 226 222 5 1.11000000e+02 4.46432800e+02 2.56099999e-01 6.69439990e+03
215 226 227 5 1.10099998e+02 2.88696014e+02 2.17899993e-01 1.88531035e+04
215 226 228 5 1.09000000e+02 3.76559998e+02 0.00000000e+00 0.00000000e+00
222 226 227 5 1.10099998e+02 2.88696014e+02 2.17899993e-01 1.88531035e+04
222 226 228 5 1.09000000e+02 3.76559998e+02 0.00000000e+00 0.00000000e+00
227 226 228 5 1.09500000e+02 5.02079987e+02 0.00000000e+00 0.00000000e+00
226 228 234 5 1.09199997e+02 4.18399994e+02 0.00000000e+00 0.00000000e+00
215 229 230 5 1.10099998e+02 2.79742249e+02 2.17899993e-01 1.88531035e+04
215 229 231 5 1.10099998e+02 2.79742249e+02 2.17899993e-01 1.88531035e+04
215 229 232 5 1.10099998e+02 6.33457581e+02 0.00000000e+00 0.00000000e+00
230 229 231 5 1.09000000e+02 2.97063995e+02 1.80199996e-01 4.51872021e+03
230 229 232 5 1.08889999e+02 4.60239990e+02 0.00000000e+00 0.00000000e+00
231 229 232 5 1.08889999e+02 4.60239990e+02 0.00000000e+00 0.00000000e+00
229 232 233 5 1.09000000e+02 4.18399994e+02 0.00000000e+00 0.00000000e+00
228 234 235 5 1.09500000e+02 5.02079987e+02 0.00000000e+00 0.00000000e+00
228 234 238 5 1.12000000e+02 7.53119995e+02 0.00000000e+00 0.00000000e+00
228 234 239 5 1.05000000e+02 3.76559998e+02 0.00000000e+00 0.00000000e+00
235 234 238 5 1.09500000e+02 3.76559998e+02 0.00000000e+00 0.00000000e+00
235 234 239 5 1.10099998e+02 2.88696014e+02 2.17899993e-01 1.88531035e+04
238 234 239 5 1.06000000e+02 3.76559998e+02 0.00000000e+00 0.00000000e+00
237 236 238 5 1.09500000e+02 3.76559998e+02 0.00000000e+00 0.00000000e+00
237 236 247 5 1.10099998e+02 2.88696014e+02 2.17899993e-01 1.88531035e+04
237 236 251 5 1.10099998e+02 2.88696014e+02 2.17899993e-01 1.88531035e+04
238 236 247 5 1.10000000e+02 3.76559998e+02 0.00000000e+00 0.00000000e+00
238 236 251 5 1.09000000e+02 3.76559998e+02 0.00000000e+00 0.00000000e+00
247 236 251 5 1.13500000e+02 4.88272797e+02 2.56099999e-01 9.33868848e+03
234 238 236 5 1.09699997e+02 7.94960022e+02 0.00000000e+00 0.00000000e+00
234 239 240 5 1.10099998e+02 2.88696014e+02 2.17899993e-01 1.88531035e+04
234 239 241 5 1.10099998e+02 6.33457581e+02 0.00000000e+00 0.00000000e+00
234 239 243 5 1.11000000e+02 4.46432800e+02 2.56099999e-01 6.69439990e+03
240 239 241 5 1.08889999e+02 4.60239990e+02 0.00000000e+00 0.00000000e+00
240 239 243 5 1.10099998e+02 2.88696014e+02 2.17899993e-01 1.88531035e+04
241 239 243 5 1.10099998e+02 6.33457581e+02 0.00000000e+00 0.00000000e+00
239 241 242 5 1.09000000e+02 4.18399994e+02 0.00000000e+00 0.00000000e+00
239 243 244 5 1.10099998e+02 2.88696014e+02 2.17899993e-01 1.88531035e+04
239 243 245 5 1.10099998e+02 6.33457581e+02 0.00000000e+00 0.00000000e+00
239 243 247 5 1.11000000e+02 4.46432800e+02 2.56099999e-01 6.69439990e+03
244 243 245 5 1.08889999e+02 4.60239990e+02 0.00000000e+00 0.00000000e+00
244 243 247 5 1.10099998e+02 2.88696014e+02 2.17899993e-01 1.88531035e+04
245 243 247 5 1.10099998e+02 6.33457581e+02 0.00000000e+00 0.00000000e+00
243 245 246 5 1.09000000e+02 4.18399994e+02 0.00000000e+00 0.00000000e+00
236 247 243 5 1.11000000e+02 4.46432800e+02 2.56099999e-01 6.69439990e+03
236 247 248 5 1.10099998e+02 2.88696014e+02 2.17899993e-01 1.88531035e+04
236 247 249 5 1.10099998e+02 6.33457581e+02 0.00000000e+00 0.00000000e+00
243 247 248 5 1.10099998e+02 2.88696014e+02 2.17899993e-01 1.88531035e+04
243 247 249 5 1.10099998e+02 6.33457581e+02 0.00000000e+00 0.00000000e+00
248 247 249 5 1.08889999e+02 4.60239990e+02 0.00000000e+00 0.00000000e+00
247 249 250 5 1.09000000e+02 4.18399994e+02 0.00000000e+00 0.00000000e+00
236 251 252 5 1.10099998e+02 2.79742249e+02 2.17899993e-01 1.88531035e+04
236 251 253 5 1.10099998e+02 2.79742249e+02 2.17899993e-01 1.88531035e+04
236 251 254 5 1.10099998e+02 6.33457581e+02 0.00000000e+00 0.00000000e+00
252 251 253 5 1.09000000e+02 2.97063995e+02 1.80199996e-01 4.51872021e+03
252 251 254 5 1.08889999e+02 4.60239990e+02 0.00000000e+00 0.00000000e+00
253 251 254 5 1.08889999e+02 4.60239990e+02 0.00000000e+00 0.00000000e+00
251 254 255 5 1.09000000e+02 4.18399994e+02 0.00000000e+00 0.00000000e+00

[ dihedrals ]
2 1 3 4 9 0.000000 7.53120005e-01 3
2 1 7 5 9 0.000000 1.18825603e+00 3
3 1 7 5 9 180.000000 1.71544003e+00 1
3 1 7 5 9 0.000000 3.72375989e+00 2
3 1 7 5 9 0.000000 2.09199995e-01 3
2 1 8 9 9 0.000000 8.36799979e-01 3
2 1 8 10 9 0.000000 5.85759997e-01 3
2 1 8 12 9 0.000000 8.36799979e-01 3
3 1 8 9 9 0.000000 5.85759997e-01 3
3 1 8 10 9 180.000000 1.10875998e+01 1
3 1 8 10 9 180.000000 5.43919981e-01 3
3 1 8 12 9 0.000000 8.36799979e-01 3
7 1 8 9 9 0.000000 8.36799979e-01 3
7 1 8 10 9 180.000000 1.15059996e+01 1
7 1 8 10 9 180.000000 1.08783996e+00 2
7 1 8 10 9 0.000000 4.18399990e-01 3
7 1 8 12 9 180.000000 1.29703999e+00 3
4 3 1 7 9 0.000000 6.48519993e+00 1
4 3 1 7 9 0.000000 4.89527988e+00 2
4 3 1 7 9 0.000000 4.47688007e+00 3
4 3 1 8 9 0.000000 1.21335995e+00 1
4 3 1 8 9 0.000000 2.59407997e+00 2
4 3 1 8 9 0.000000 2.09199995e-01 3
6 5 16 12 9 0.000000 8.36799979e-01 3
6 5 16 17 9 0.000000 8.36799979e-01 3
6 5 16 18 9 0.000000 8.36799979e-01 3
7 5 16 12 9 180.000000 1.29703999e+00 3
7 5 16 17 9 0.000000 8.36799979e-01 3
7 5 16 18 9 180.000000 5.69023991e+00 1
7 5 16 18 9 0.000000 6.69439971e-01 2
7 5 16 18 9 0.000000 4.22584009e+00 3
6 5 19 20 9 0.000000 8.36799979e-01 3
6 5 19 21 9 0.000000 8.36799979e-01 3
6 5 19 22 9 0.000000 5.85759997e-01 3
7 5 19 20 9 0.000000 8.36799979e-01 3
7 5 19 21 9 0.000000 8.36799979e-01 3
7 5 19 22 9 180.000000 3.13800001e+00 1
7 5 19 22 9 0.000000 7.11279988e-01 2
7 5 19 22 9 180.000000 1.04600000e+00 3
16 5 19 20 9 0.000000 8.36799979e-01 3
16 5 19 21 9 0.000000 8.36799979e-01 3
16 5 19 22 9 0.000000 8.36799979e-01 3
5 7 1 8 9 0.000000 8.36799979e-01 3
1 7 5 6 9 0.000000 1.18825603e+00 3
1 7 5 16 9 0.000000 8.36799979e-01 3
1 7 5 19 9 0.000000 8.36799979e-01 3
1 8 10 11 9 0.000000 1.21335995e+00 1
1 8 10 11 9 0.000000 2.59407997e+00 2
1 8 10 11 9 0.000000 2.09199995e-01 3
9 8 10 11 9 0.000000 7.53120005e-01 3
1 8 12 13 9 0.000000 8.36799979e-01 3
1 8 12 14 9 0.000000 8.36799979e-01 3
1 8 12 16 9 180.000000 7.94960022e-01 3
9 8 12 13 9 0.000000 8.36799979e-01 3
9 8 12 14 9 0.000000 5.85759997e-01 3
9 8 12 16 9 0.000000 8.36799979e-01 3
10 8 12 13 9 0.000000 5.85759997e-01 3
10 8 12 14 9 180.000000 1.10875998e+01 1
10 8 12 14 9 180.000000 5.43919981e-01 3
10 8 12 16 9 0.000000 8.36799979e-01 3
11 10 8 12 9 0.000000 1.21335995e+00 1
11 10 8 12 9 0.000000 2.59407997e+00 2
11 10 8 12 9 0.000000 2.09199995e-01 3
8 12 14 15 9 0.000000 1.21335995e+00 1
8 12 14 15 9 0.000000 2.59407997e+00 2
8 12 14 15 9 0.000000 2.09199995e-01 3
13 12 14 15 9 0.000000 7.53120005e-01 3
8 12 16 17 9 0.000000 8.36799979e-01 3
8 12 16 18 9 0.000000 8.36799979e-01 3
13 12 16 17 9 0.000000 8.36799979e-01 3
13 12 16 18 9 0.000000 8.36799979e-01 3
14 12 16 17 9 0.000000 5.85759997e-01 3
14 12 16 18 9 180.000000 1.10875998e+01 1
14 12 16 18 9 180.000000 5.43919981e-01 3
15 14 12 16 9 0.000000 1.21335995e+00 1
15 14 12 16 9 0.000000 2.59407997e+00 2
15 14 12 16 9 0.000000 2.09199995e-01 3
12 16 5 19 9 0.000000 8.36799979e-01 3
17 16 5 19 9 0.000000 8.36799979e-01 3
18 16 5 19 9 0.000000 8.36799979e-01 3
5 16 12 8 9 180.000000 7.94960022e-01 3
5 16 12 13 9 0.000000 8.36799979e-01 3
5 16 12 14 9 0.000000 8.36799979e-01 3
5 16 18 24 9 180.000000 5.43919981e-01 1
5 16 18 24 9 180.000000 1.04600000e+00 2
5 16 18 24 9 180.000000 2.51040012e-01 3
12 16 18 24 9 180.000000 5.43919981e-01 1
12 16 18 24 9 180.000000 1.04600000e+00 2
12 16 18 24 9 180.000000 2.51040012e-01 3
17 16 18 24 9 0.000000 1.18825603e+00 3
16 18 24 25 9 0.000000 1.18825603e+00 3
16 18 24 28 9 180.000000 2.09199995e-01 1
16 18 24 28 9 0.000000 3.80744004e+00 2
16 18 24 28 9 180.000000 5.31368017e+00 3
16 18 24 29 9 180.000000 1.71544003e+00 1
16 18 24 29 9 180.000000 2.76144004e+00 2
16 18 24 29 9 0.000000 6.69439983e+00 3
5 19 22 23 9 0.000000 1.21335995e+00 1
5 19 22 23 9 0.000000 2.59407997e+00 2
5 19 22 23 9 0.000000 2.09199995e-01 3
20 19 22 23 9 0.000000 7.53120005e-01 3
21 19 22 23 9 0.000000 7.53120005e-01 3
18 24 28 26 9 180.000000 1.71544003e+00 1
18 24 28 26 9 0.000000 3.72375989e+00 2
18 24 28 26 9 0.000000 2.09199995e-01 3
25 24 28 26 9 0.000000 1.18825603e+00 3
18 24 29 30 9 0.000000 8.36799979e-01 3
18 24 29 31 9 180.000000 1.10875998e+01 1
18 24 29 31 9 180.000000 5.43919981e-01 3
18 24 29 33 9 0.000000 8.36799979e-01 3
25 24 29 30 9 0.000000 8.36799979e-01 3
25 24 29 31 9 0.000000 5.85759997e-01 3
25 24 29 33 9 0.000000 8.36799979e-01 3
28 24 29 30 9 0.000000 8.36799979e-01 3
28 24 29 31 9 180.000000 1.15059996e+01 1
28 24 29 31 9 180.000000 1.08783996e+00 2
28 24 29 31 9 0.000000 4.18399990e-01 3
28 24 29 33 9 180.000000 1.29703999e+00 3
27 26 37 33 9 0.000000 8.36799979e-01 3
27 26 37 38 9 0.000000 8.36799979e-01 3
27 26 37 39 9 0.000000 8.36799979e-01 3
28 26 37 33 9 180.000000 1.29703999e+00 3
28 26 37 38 9 0.000000 8.36799979e-01 3
28 26 37 39 9 180.000000 5.69023991e+00 1
28 26 37 39 9 0.000000 6.69439971e-01 2
28 26 37 39 9 0.000000 4.22584009e+00 3
27 26 40 41 9 0.000000 8.36799979e-01 3
27 26 40 42 9 0.000000 8.36799979e-01 3
27 26 40 43 9 0.000000 5.85759997e-01 3
28 26 40 41 9 0.000000 8.36799979e-01 3
28 26 40 42 9 0.000000 8.36799979e-01 3
28 26 40 43 9 180.000000 3.13800001e+00 1
28 26 40 43 9 0.000000 7.11279988e-01 2
28 26 40 43 9 180.000000 1.04600000e+00 3
37 26 40 41 9 0.000000 8.36799979e-01 3
37 26 40 42 9 0.000000 8.36799979e-01 3
37 26 40 43 9 0.000000 8.36799979e-01 3
26 28 24 29 9 0.000000 8.36799979e-01 3
24 28 26 27 9 0.000000 1.18825603e+00 3
24 28 26 37 9 0.000000 8.36799979e-01 3
24 28 26 40 9 0.000000 8.36799979e-01 3
24 29 31 32 9 0.000000 1.21335995e+00 1
24 29 31 32 9 0.000000 2.59407997e+00 2
24 29 31 32 9 0.000000 2.09199995e-01 3
30 29 31 32 9 0.000000 7.53120005e-01 3
24 29 33 34 9 0.000000 8.36799979e-01 3
24 29 33 35 9 0.000000 8.36799979e-01 3
24 29 33 37 9 180.000000 7.94960022e-01 3
30 29 33 34 9 0.000000 8.36799979e-01 3
30 29 33 35 9 0.000000 5.85759997e-01 3
30 29 33 37 9 0.000000 8.36799979e-01 3
31 29 33 34 9 0.000000 5.85759997e-01 3
31 29 33 35 9 180.000000 1.10875998e+01 1
31 29 33 35 9 180.000000 5.43919981e-01 3
31 29 33 37 9 0.000000 8.36799979e-01 3
32 31 29 33 9 0.000000 1.21335995e+00 1
32 31 29 33 9 0.000000 2.59407997e+00 2
32 31 29 33 9 0.000000 2.09199995e-01 3
29 33 35 36 9 0.000000 1.21335995e+00 1
29 33 35 36 9 0.000000 2.59407997e+00 2
29 33 35 36 9 0.000000 2.09199995e-01 3
34 33 35 36 9 0.000000 7.53120005e-01 3
29 33 37 38 9 0.000000 8.36799979e-01 3
29 33 37 39 9 0.000000 8.36799979e-01 3
34 33 37 38 9 0.000000 8.36799979e-01 3
34 33 37 39 9 0.000000 8.36799979e-01 3
35 33 37 38 9 0.000000 5.85759997e-01 3
35 33 37 39 9 180.000000 1.10875998e+01 1
35 33 37 39 9 180.000000 5.43919981e-01 3
36 35 33 37 9 0.000000 1.21335995e+00 1
36 35 33 37 9 0.000000 2.59407997e+00 2
36 35 33 37 9 0.000000 2.09199995e-01 3
33 37 26 40 9 0.000000 8.36799979e-01 3
38 37 26 40 9 0.000000 8.36799979e-01 3
39 37 26 40 9 0.000000 8.36799979e-01 3
26 37 33 29 9 180.000000 7.94960022e-01 3
26 37 33 34 9 0.000000 8.36799979e-01 3
26 37 33 35 9 0.000000 8.36799979e-01 3
26 37 39 45 9 180.000000 5.43919981e-01 1
26 37 39 45 9 180.000000 1.04600000e+00 2
26 37 39 45 9 180.000000 2.51040012e-01 3
33 37 39 45 9 180.000000 5.43919981e-01 1
33 37 39 45 9 180.000000 1.04600000e+00 2
33 37 39 45 9 180.000000 2.51040012e-01 3
38 37 39 45 9 0.000000 1.18825603e+00 3
37 39 45 46 9 0.000000 1.18825603e+00 3
37 39 45 49 9 180.000000 2.09199995e-01 1
37 39 45 49 9 0.000000 3.80744004e+00 2
37 39 45 49 9 180.000000 5.31368017e+00 3
37 39 45 50 9 180.000000 1.71544003e+00 1
37 39 45 50 9 180.000000 2.76144004e+00 2
37 39 45 50 9 0.000000 6.69439983e+00 3
26 40 43 44 9 0.000000 1.21335995e+00 1
26 40 43 44 9 0.000000 2.59407997e+00 2
26 40 43 44 9 0.000000 2.09199995e-01 3
41 40 43 44 9 0.000000 7.53120005e-01 3
42 40 43 44 9 0.000000 7.53120005e-01 3
39 45 49 47 9 180.000000 1.71544003e+00 1
39 45 49 47 9 0.000000 3.72375989e+00 2
39 45 49 47 9 0.000000 2.09199995e-01 3
46 45 49 47 9 0.000000 1.18825603e+00 3
39 45 50 51 9 0.000000 8.36799979e-01 3
39 45 50 52 9 180.000000 1.10875998e+01 1
39 45 50 52 9 180.000000 5.43919981e-01 3
39 45 50 54 9 0.000000 8.36799979e-01 3
46 45 50 51 9 0.000000 8.36799979e-01 3
46 45 50 52 9 0.000000 5.85759997e-01 3
46 45 50 54 9 0.000000 8.36799979e-01 3
49 45 50 51 9 0.000000 8.36799979e-01 3
49 45 50 52 9 180.000000 1.15059996e+01 1
49 45 50 52 9 180.000000 1.08783996e+00 2
49 45 50 52 9 0.000000 4.18399990e-01 3
49 45 50 54 9 180.000000 1.29703999e+00 3
48 47 58 54 9 0.000000 8.36799979e-01 3
48 47 58 59 9 0.000000 8.36799979e-01 3
48 47 58 60 9 0.000000 8.36799979e-01 3
49 47 58 54 9 180.000000 1.29703999e+00 3
49 47 58 59 9 0.000000 8.36799979e-01 3
49 47 58 60 9 180.000000 5.69023991e+00 1
49 47 58 60 9 0.000000 6.69439971e-01 2
49 47 58 60 9 0.000000 4.22584009e+00 3
48 47 61 62 9 0.000000 8.36799979e-01 3
48 47 61 63 9 0.000000 8.36799979e-01 3
48 47 61 64 9 0.000000 5.85759997e-01 3
49 47 61 62 9 0.000000 8.36799979e-01 3
49 47 61 63 9 0.000000 8.36799979e-01 3
49 47 61 64 9 180.000000 3.13800001e+00 1
49 47 61 64 9 0.000000 7.11279988e-01 2
49 47 61 64 9 180.000000 1.04600000e+00 3
58 47 61 62 9 0.000000 8.36799979e-01 3
58 47 61 63 9 0.000000 8.36799979e-01 3
58 47 61 64 9 0.000000 8.36799979e-01 3
47 49 45 50 9 0.000000 8.36799979e-01 3
45 49 47 48 9 0.000000 1.18825603e+00 3
45 49 47 58 9 0.000000 8.36799979e-01 3
45 49 47 61 9 0.000000 8.36799979e-01 3
45 50 52 53 9 0.000000 1.21335995e+00 1
45 50 52 53 9 0.000000 2.59407997e+00 2
45 50 52 53 9 0.000000 2.09199995e-01 3
51 50 52 53 9 0.000000 7.53120005e-01 3
45 50 54 55 9 0.000000 8.36799979e-01 3
45 50 54 56 9 0.000000 8.36799979e-01 3
45 50 54 58 9 180.000000 7.94960022e-01 3
51 50 54 55 9 0.000000 8.36799979e-01 3
51 50 54 56 9 0.000000 5.85759997e-01 3
51 50 54 58 9 0.000000 8.36799979e-01 3
52 50 54 55 9 0.000000 5.85759997e-01 3
52 50 54 56 9 180.000000 1.10875998e+01 1
52 50 54 56 9 180.000000 5.43919981e-01 3
52 50 54 58 9 0.000000 8.36799979e-01 3
53 52 50 54 9 0.000000 1.21335995e+00 1
53 52 50 54 9 0.000000 2.59407997e+00 2
53 52 50 54 9 0.000000 2.09199995e-01 3
50 54 56 57 9 0.000000 1.21335995e+00 1
50 54 56 57 9 0.000000 2.59407997e+00 2
50 54 56 57 9 0.000000 2.09199995e-01 3
55 54 56 57 9 0.000000 7.53120005e-01 3
50 54 58 59 9 0.000000 8.36799979e-01 3
50 54 58 60 9 0.000000 8.36799979e-01 3
55 54 58 59 9 0.000000 8.36799979e-01 3
55 54 58 60 9 0.000000 8.36799979e-01 3
56 54 58 59 9 0.000000 5.85759997e-01 3
56 54 58 60 9 180.000000 1.10875998e+01 1
56 54 58 60 9 180.000000 5.43919981e-01 3
57 56 54 58 9 0.000000 1.21335995e+00 1
57 56 54 58 9 0.000000 2.59407997e+00 2
57 56 54 58 9 0.000000 2.09199995e-01 3
54 58 47 61 9 0.000000 8.36799979e-01 3
59 58 47 61 9 0.000000 8.36799979e-01 3
60 58 47 61 9 0.000000 8.36799979e-01 3
47 58 54 50 9 180.000000 7.94960022e-01 3
47 58 54 55 9 0.000000 8.36799979e-01 3
47 58 54 56 9 0.000000 8.36799979e-01 3
47 58 60 66 9 180.000000 5.43919981e-01 1
47 58 60 66 9 180.000000 1.04600000e+00 2
47 58 60 66 9 180.000000 2.51040012e-01 3
54 58 60 66 9 180.000000 5.43919981e-01 1
54 58 60 66 9 180.000000 1.04600000e+00 2
54 58 60 66 9 180.000000 2.51040012e-01 3
59 58 60 66 9 0.000000 1.18825603e+00 3
58 60 66 67 9 0.000000 1.18825603e+00 3
58 60 66 70 9 180.000000 2.09199995e-01 1
58 60 66 70 9 0.000000 3.80744004e+00 2
58 60 66 70 9 180.000000 5.31368017e+00 3
58 60 66 71 9 180.000000 1.71544003e+00 1
58 60 66 71 9 180.000000 2.76144004e+00 2
58 60 66 71 9 0.000000 6.69439983e+00 3
47 61 64 65 9 0.000000 1.21335995e+00 1
47 61 64 65 9 0.000000 2.59407997e+00 2
47 61 64 65 9 0.000000 2.09199995e-01 3
62 61 64 65 9 0.000000 7.53120005e-01 3
63 61 64 65 9 0.000000 7.53120005e-01 3
60 66 70 68 9 180.000000 1.71544003e+00 1
60 66 70 68 9 0.000000 3.72375989e+00 2
60 66 70 68 9 0.000000 2.09199995e-01 3
67 66 70 68 9 0.000000 1.18825603e+00 3
60 66 71 72 9 0.000000 8.36799979e-01 3
60 66 71 73 9 180.000000 1.10875998e+01 1
60 66 71 73 9 180.000000 5.43919981e-01 3
60 66 71 75 9 0.000000 8.36799979e-01 3
67 66 71 72 9 0.000000 8.36799979e-01 3
67 66 71 73 9 0.000000 5.85759997e-01 3
67 66 71 75 9 0.000000 8.36799979e-01 3
70 66 71 72 9 0.000000 8.36799979e-01 3
70 66 71 73 9 180.000000 1.15059996e+01 1
70 66 71 73 9 180.000000 1.08783996e+00 2
70 66 71 73 9 0.000000 4.18399990e-01 3
70 66 71 75 9 180.000000 1.29703999e+00 3
69 68 79 75 9 0.000000 8.36799979e-01 3
69 68 79 80 9 0.000000 8.36799979e-01 3
69 68 79 81 9 0.000000 8.36799979e-01 3
70 68 79 75 9 180.000000 1.29703999e+00 3
70 68 79 80 9 0.000000 8.36799979e-01 3
70 68 79 81 9 180.000000 5.69023991e+00 1
70 68 79 81 9 0.000000 6.69439971e-01 2
70 68 79 81 9 0.000000 4.22584009e+00 3
69 68 82 83 9 0.000000 8.36799979e-01 3
69 68 82 84 9 0.000000 8.36799979e-01 3
69 68 82 85 9 0.000000 5.85759997e-01 3
70 68 82 83 9 0.000000 8.36799979e-01 3
70 68 82 84 9 0.000000 8.36799979e-01 3
70 68 82 85 9 180.000000 3.13800001e+00 1
70 68 82 85 9 0.000000 7.11279988e-01 2
70 68 82 85 9 180.000000 1.04600000e+00 3
79 68 82 83 9 0.000000 8.36799979e-01 3
79 68 82 84 9 0.000000 8.36799979e-01 3
79 68 82 85 9 0.000000 8.36799979e-01 3
68 70 66 71 9 0.000000 8.36799979e-01 3
66 70 68 69 9 0.000000 1.18825603e+00 3
66 70 68 79 9 0.000000 8.36799979e-01 3
66 70 68 82 9 0.000000 8.36799979e-01 3
66 71 73 74 9 0.000000 1.21335995e+00 1
66 71 73 74 9 0.000000 2.59407997e+00 2
66 71 73 74 9 0.000000 2.09199995e-01 3
72 71 73 74 9 0.000000 7.53120005e-01 3
66 71 75 76 9 0.000000 8.36799979e-01 3
66 71 75 77 9 0.000000 8.36799979e-01 3
66 71 75 79 9 180.000000 7.94960022e-01 3
72 71 75 76 9 0.000000 8.36799979e-01 3
72 71 75 77 9 0.000000 5.85759997e-01 3
72 71 75 79 9 0.000000 8.36799979e-01 3
73 71 75 76 9 0.000000 5.85759997e-01 3
73 71 75 77 9 180.000000 1.10875998e+01 1
73 71 75 77 9 180.000000 5.43919981e-01 3
73 71 75 79 9 0.000000 8.36799979e-01 3
74 73 71 75 9 0.000000 1.21335995e+00 1
74 73 71 75 9 0.000000 2.59407997e+00 2
74 73 71 75 9 0.000000 2.09199995e-01 3
71 75 77 78 9 0.000000 1.21335995e+00 1
71 75 77 78 9 0.000000 2.59407997e+00 2
71 75 77 78 9 0.000000 2.09199995e-01 3
76 75 77 78 9 0.000000 7.53120005e-01 3
71 75 79 80 9 0.000000 8.36799979e-01 3
71 75 79 81 9 0.000000 8.36799979e-01 3
76 75 79 80 9 0.000000 8.36799979e-01 3
76 75 79 81 9 0.000000 8.36799979e-01 3
77 75 79 80 9 0.000000 5.85759997e-01 3
77 75 79 81 9 180.000000 1.10875998e+01 1
77 75 79 81 9 180.000000 5.43919981e-01 3
78 77 75 79 9 0.000000 1.21335995e+00 1
78 77 75 79 9 0.000000 2.59407997e+00 2
78 77 75 79 9 0.000000 2.09199995e-01 3
75 79 68 82 9 0.000000 8.36799979e-01 3
80 79 68 82 9 0.000000 8.36799979e-01 3
81 79 68 82 9 0.000000 8.36799979e-01 3
68 79 75 71 9 180.000000 7.94960022e-01 3
68 79 75 76 9 0.000000 8.36799979e-01 3
68 79 75 77 9 0.000000 8.36799979e-01 3
68 79 81 87 9 180.000000 5.43919981e-01 1
68 79 81 87 9 180.000000 1.04600000e+00 2
68 79 81 87 9 180.000000 2.51040012e-01 3
75 79 81 87 9 180.000000 5.43919981e-01 1
75 79 81 87 9 180.000000 1.04600000e+00 2
75 79 81 87 9 180.000000 2.51040012e-01 3
80 79 81 87 9 0.000000 1.18825603e+00 3
79 81 87 88 9 0.000000 1.18825603e+00 3
79 81 87 91 9 180.000000 2.09199995e-01 1
79 81 87 91 9 0.000000 3.80744004e+00 2
79 81 87 91 9 180.000000 5.31368017e+00 3
79 81 87 92 9 180.000000 1.71544003e+00 1
79 81 87 92 9 180.000000 2.76144004e+00 2
79 81 87 92 9 0.000000 6.69439983e+00 3
68 82 85 86 9 0.000000 1.21335995e+00 1
68 82 85 86 9 0.000000 2.59407997e+00 2
68 82 85 86 9 0.000000 2.09199995e-01 3
83 82 85 86 9 0.000000 7.53120005e-01 3
84 82 85 86 9 0.000000 7.53120005e-01 3
81 87 91 89 9 180.000000 1.71544003e+00 1
81 87 91 89 9 0.000000 3.72375989e+00 2
81 87 91 89 9 0.000000 2.09199995e-01 3
88 87 91 89 9 0.000000 1.18825603e+00 3
81 87 92 93 9 0.000000 8.36799979e-01 3
81 87 92 94 9 180.000000 1.10875998e+01 1
81 87 92 94 9 180.000000 5.43919981e-01 3
81 87 92 96 9 0.000000 8.36799979e-01 3
88 87 92 93 9 0.000000 8.36799979e-01 3
88 87 92 94 9 0.000000 5.85759997e-01 3
88 87 92 96 9 0.000000 8.36799979e-01 3
91 87 92 93 9 0.000000 8.36799979e-01 3
91 87 92 94 9 180.000000 1.15059996e+01 1
91 87 92 94 9 180.000000 1.08783996e+00 2
91 87 92 94 9 0.000000 4.18399990e-01 3
91 87 92 96 9 180.000000 1.29703999e+00 3
90 89 100 96 9 0.000000 8.36799979e-01 3
90 89 100 101 9 0.000000 8.36799979e-01 3
90 89 100 102 9 0.000000 8.36799979e-01 3
91 89 100 96 9 180.000000 1.29703999e+00 3
91 89 100 101 9 0.000000 8.36799979e-01 3
91 89 100 102 9 180.000000 5.69023991e+00 1
91 89 100 102 9 0.000000 6.69439971e-01 2
91 89 100 102 9 0.000000 4.22584009e+00 3
90 89 103 104 9 0.000000 8.36799979e-01 3
90 89 103 105 9 0.000000 8.36799979e-01 3
90 89 103 106 9 0.000000 5.85759997e-01 3
91 89 103 104 9 0.000000 8.36799979e-01 3
91 89 103 105 9 0.000000 8.36799979e-01 3
91 89 103 106 9 180.000000 3.13800001e+00 1
91 89 103 106 9 0.000000 7.11279988e-01 2
91 89 103 106 9 180.000000 1.04600000e+00 3
100 89 103 104 9 0.000000 8.36799979e-01 3
100 89 103 105 9 0.000000 8.36799979e-01 3
100 89 103 106 9 0.000000 8.36799979e-01 3
89 91 87 92 9 0.000000 8.36799979e-01 3
87 91 89 90 9 0.000000 1.18825603e+00 3
87 91 89 100 9 0.000000 8.36799979e-01 3
87 91 89 103 9 0.000000 8.36799979e-01 3
87 92 94 95 9 0.000000 1.21335995e+00 1
87 92 94 95 9 0.000000 2.59407997e+00 2
87 92 94 95 9 0.000000 2.09199995e-01 3
93 92 94 95 9 0.000000 7.53120005e-01 3
87 92 96 97 9 0.000000 8.36799979e-01 3
87 92 96 98 9 0.000000 8.36799979e-01 3
87 92 96 100 9 180.000000 7.94960022e-01 3
93 92 96 97 9 0.000000 8.36799979e-01 3
93 92 96 98 9 0.000000 5.85759997e-01 3
93 92 96 100 9 0.000000 8.36799979e-01 3
94 92 96 97 9 0.000000 5.85759997e-01 3
94 92 96 98 9 180.000000 1.10875998e+01 1
94 92 96 98 9 180.000000 5.43919981e-01 3
94 92 96 100 9 0.000000 8.36799979e-01 3
95 94 92 96 9 0.000000 1.21335995e+00 1
95 94 92 96 9 0.000000 2.59407997e+00 2
95 94 92 96 9 0.000000 2.09199995e-01 3
92 96 98 99 9 0.000000 1.21335995e+00 1
92 96 98 99 9 0.000000 2.59407997e+00 2
92 96 98 99 9 0.000000 2.09199995e-01 3
97 96 98 99 9 0.000000 7.53120005e-01 3
92 96 100 101 9 0.000000 8.36799979e-01 3
92 96 100 102 9 0.000000 8.36799979e-01 3
97 96 100 101 9 0.000000 8.36799979e-01 3
97 96 100 102 9 0.000000 8.36799979e-01 3
98 96 100 101 9 0.000000 5.85759997e-01 3
98 96 100 102 9 180.000000 1.10875998e+01 1
98 96 100 102 9 180.000000 5.43919981e-01 3
99 98 96 100 9 0.000000 1.21335995e+00 1
99 98 96 100 9 0.000000 2.59407997e+00 2
99 98 96 100 9 0.000000 2.09199995e-01 3
96 100 89 103 9 0.000000 8.36799979e-01 3
101 100 89 103 9 0.000000 8.36799979e-01 3
102 100 89 103 9 0.000000 8.36799979e-01 3
89 100 96 92 9 180.000000 7.94960022e-01 3
89 100 96 97 9 0.000000 8.36799979e-01 3
89 100 96 98 9 0.000000 8.36799979e-01 3
89 100 102 108 9 180.000000 5.43919981e-01 1
89 100 102 108 9 180.000000 1.04600000e+00 2
89 100 102 108 9 180.000000 2.51040012e-01 3
96 100 102 108 9 180.000000 5.43919981e-01 1
96 100 102 108 9 180.000000 1.04600000e+00 2
96 100 102 108 9 180.000000 2.51040012e-01 3
101 100 102 108 9 0.000000 1.18825603e+00 3
100 102 108 109 9 0.000000 1.18825603e+00 3
100 102 108 112 9 180.000000 2.09199995e-01 1
100 102 108 112 9 0.000000 3.80744004e+00 2
100 102 108 112 9 180.000000 5.31368017e+00 3
100 102 108 113 9 180.000000 1.71544003e+00 1
100 102 108 113 9 180.000000 2.76144004e+00 2
100 102 108 113 9 0.000000 6.69439983e+00 3
89 103 106 107 9 0.000000 1.21335995e+00 1
89 103 106 107 9 0.000000 2.59407997e+00 2
89 103 106 107 9 0.000000 2.09199995e-01 3
104 103 106 107 9 0.000000 7.53120005e-01 3
105 103 106 107 9 0.000000 7.53120005e-01 3
102 108 112 110 9 180.000000 1.71544003e+00 1
102 108 112 110 9 0.000000 3.72375989e+00 2
102 108 112 110 9 0.000000 2.09199995e-01 3
109 108 112 110 9 0.000000 1.18825603e+00 3
102 108 113 114 9 0.000000 8.36799979e-01 3
102 108 113 115 9 180.000000 1.10875998e+01 1
102 108 113 115 9 180.000000 5.43919981e-01 3
102 108 113 117 9 0.000000 8.36799979e-01 3
109 108 113 114 9 0.000000 8.36799979e-01 3
109 108 113 115 9 0.000000 5.85759997e-01 3
109 108 113 117 9 0.000000 8.36799979e-01 3
112 108 113 114 9 0.000000 8.36799979e-01 3
112 108 113 115 9 180.000000 1.15059996e+01 1
112 108 113 115 9 180.000000 1.08783996e+00 2
112 108 113 115 9 0.000000 4.18399990e-01 3
112 108 113 117 9 180.000000 1.29703999e+00 3
111 110 121 117 9 0.000000 8.36799979e-01 3
111 110 121 122 9 0.000000 8.36799979e-01 3
111 110 121 123 9 0.000000 8.36799979e-01 3
112 110 121 117 9 180.000000 1.29703999e+00 3
112 110 121 122 9 0.000000 8.36799979e-01 3
112 110 121 123 9 180.000000 5.69023991e+00 1
112 110 121 123 9 0.000000 6.69439971e-01 2
112 110 121 123 9 0.000000 4.22584009e+00 3
111 110 124 125 9 0.000000 8.36799979e-01 3
111 110 124 126 9 0.000000 8.36799979e-01 3
111 110 124 127 9 0.000000 5.85759997e-01 3
112 110 124 125 9 0.000000 8.36799979e-01 3
112 110 124 126 9 0.000000 8.36799979e-01 3
112 110 124 127 9 180.000000 3.13800001e+00 1
112 110 124 127 9 0.000000 7.11279988e-01 2
112 110 124 127 9 180.000000 1.04600000e+00 3
121 110 124 125 9 0.000000 8.36799979e-01 3
121 110 124 126 9 0.000000 8.36799979e-01 3
121 110 124 127 9 0.000000 8.36799979e-01 3
110 112 108 113 9 0.000000 8.36799979e-01 3
108 112 110 111 9 0.000000 1.18825603e+00 3
108 112 110 121 9 0.000000 8.36799979e-01 3
108 112 110 124 9 0.000000 8.36799979e-01 3
108 113 115 116 9 0.000000 1.21335995e+00 1
108 113 115 116 9 0.000000 2.59407997e+00 2
108 113 115 116 9 0.000000 2.09199995e-01 3
114 113 115 116 9 0.000000 7.53120005e-01 3
108 113 117 118 9 0.000000 8.36799979e-01 3
108 113 117 119 9 0.000000 8.36799979e-01 3
108 113 117 121 9 180.000000 7.94960022e-01 3
114 113 117 118 9 0.000000 8.36799979e-01 3
114 113 117 119 9 0.000000 5.85759997e-01 3
114 113 117 121 9 0.000000 8.36799979e-01 3
115 113 117 118 9 0.000000 5.85759997e-01 3
115 113 117 119 9 180.000000 1.10875998e+01 1
115 113 117 119 9 180.000000 5.43919981e-01 3
115 113 117 121 9 0.000000 8.36799979e-01 3
116 115 113 117 9 0.000000 1.21335995e+00 1
116 115 113 117 9 0.000000 2.59407997e+00 2
116 115 113 117 9 0.000000 2.09199995e-01 3
113 117 119 120 9 0.000000 1.21335995e+00 1
113 117 119 120 9 0.000000 2.59407997e+00 2
113 117 119 120 9 0.000000 2.09199995e-01 3
118 117 119 120 9 0.000000 7.53120005e-01 3
113 117 121 122 9 0.000000 8.36799979e-01 3
113 117 121 123 9 0.000000 8.36799979e-01 3
118 117 121 122 9 0.000000 8.36799979e-01 3
118 117 121 123 9 0.000000 8.36799979e-01 3
119 117 121 122 9 0.000000 5.85759997e-01 3
119 117 121 123 9 180.000000 1.10875998e+01 1
119 117 121 123 9 180.000000 5.43919981e-01 3
120 119 117 121 9 0.000000 1.21335995e+00 1
120 119 117 121 9 0.000000 2.59407997e+00 2
120 119 117 121 9 0.000000 2.09199995e-01 3
117 121 110 124 9 0.000000 8.36799979e-01 3
122 121 110 124 9 0.000000 8.36799979e-01 3
123 121 110 124 9 0.000000 8.36799979e-01 3
110 121 117 113 9 180.000000 7.94960022e-01 3
110 121 117 118 9 0.000000 8.36799979e-01 3
110 121 117 119 9 0.000000 8.36799979e-01 3
110 121 123 129 9 180.000000 5.43919981e-01 1
110 121 123 129 9 180.000000 1.04600000e+00 2
110 121 123 129 9 180.000000 2.51040012e-01 3
117 121 123 129 9 180.000000 5.43919981e-01 1
117 121 123 129 9 180.000000 1.04600000e+00 2
117 121 123 129 9 180.000000 2.51040012e-01 3
122 121 123 129 9 0.000000 1.18825603e+00 3
121 123 129 130 9 0.000000 1.18825603e+00 3
121 123 129 133 9 180.000000 2.09199995e-01 1
121 123 129 133 9 0.000000 3.80744004e+00 2
121 123 129 133 9 180.000000 5.31368017e+00 3
121 123 129 134 9 180.000000 1.71544003e+00 1
121 123 129 134 9 180.000000 2.76144004e+00 2
121 123 129 134 9 0.000000 6.69439983e+00 3
110 124 127 128 9 0.000000 1.21335995e+00 1
110 124 127 128 9 0.000000 2.59407997e+00 2
110 124 127 128 9 0.000000 2.09199995e-01 3
125 124 127 128 9 0.000000 7.53120005e-01 3
126 124 127 128 9 0.000000 7.53120005e-01 3
123 129 133 131 9 180.000000 1.71544003e+00 1
123 129 133 131 9 0.000000 3.72375989e+00 2
123 129 133 131 9 0.000000 2.09199995e-01 3
130 129 133 131 9 0.000000 1.18825603e+00 3
123 129 134 135 9 0.000000 8.36799979e-01 3
123 129 134 136 9 180.000000 1.10875998e+01 1
123 129 134 136 9 180.000000 5.43919981e-01 3
123 129 134 138 9 0.000000 8.36799979e-01 3
130 129 134 135 9 0.000000 8.36799979e-01 3
130 129 134 136 9 0.000000 5.85759997e-01 3
130 129 134 138 9 0.000000 8.36799979e-01 3
133 129 134 135 9 0.000000 8.36799979e-01 3
133 129 134 136 9 180.000000 1.15059996e+01 1
133 129 134 136 9 180.000000 1.08783996e+00 2
133 129 134 136 9 0.000000 4.18399990e-01 3
133 129 134 138 9 180.000000 1.29703999e+00 3
132 131 142 138 9 0.000000 8.36799979e-01 3
132 131 142 143 9 0.000000 8.36799979e-01 3
132 131 142 144 9 0.000000 8.36799979e-01 3
133 131 142 138 9 180.000000 1.29703999e+00 3
133 131 142 143 9 0.000000 8.36799979e-01 3
133 131 142 144 9 180.000000 5.69023991e+00 1
133 131 142 144 9 0.000000 6.69439971e-01 2
133 131 142 144 9 0.000000 4.22584009e+00 3
132 131 145 146 9 0.000000 8.36799979e-01 3
132 131 145 147 9 0.000000 8.36799979e-01 3
132 131 145 148 9 0.000000 5.85759997e-01 3
133 131 145 146 9 0.000000 8.36799979e-01 3
133 131 145 147 9 0.000000 8.36799979e-01 3
133 131 145 148 9 180.000000 3.13800001e+00 1
133 131 145 148 9 0.000000 7.11279988e-01 2
133 131 145 148 9 180.000000 1.04600000e+00 3
142 131 145 146 9 0.000000 8.36799979e-01 3
142 131 145 147 9 0.000000 8.36799979e-01 3
142 131 145 148 9 0.000000 8.36799979e-01 3
131 133 129 134 9 0.000000 8.36799979e-01 3
129 133 131 132 9 0.000000 1.18825603e+00 3
129 133 131 142 9 0.000000 8.36799979e-01 3
129 133 131 145 9 0.000000 8.36799979e-01 3
129 134 136 137 9 0.000000 1.21335995e+00 1
129 134 136 137 9 0.000000 2.59407997e+00 2
129 134 136 137 9 0.000000 2.09199995e-01 3
135 134 136 137 9 0.000000 7.53120005e-01 3
129 134 138 139 9 0.000000 8.36799979e-01 3
129 134 138 140 9 0.000000 8.36799979e-01 3
129 134 138 142 9 180.000000 7.94960022e-01 3
135 134 138 139 9 0.000000 8.36799979e-01 3
135 134 138 140 9 0.000000 5.85759997e-01 3
135 134 138 142 9 0.000000 8.36799979e-01 3
136 134 138 139 9 0.000000 5.85759997e-01 3
136 134 138 140 9 180.000000 1.10875998e+01 1
136 134 138 140 9 180.000000 5.43919981e-01 3
136 134 138 142 9 0.000000 8.36799979e-01 3
137 136 134 138 9 0.000000 1.21335995e+00 1
137 136 134 138 9 0.000000 2.59407997e+00 2
137 136 134 138 9 0.000000 2.09199995e-01 3
134 138 140 141 9 0.000000 1.21335995e+00 1
134 138 140 141 9 0.000000 2.59407997e+00 2
134 138 140 141 9 0.000000 2.09199995e-01 3
139 138 140 141 9 0.000000 7.53120005e-01 3
134 138 142 143 9 0.000000 8.36799979e-01 3
134 138 142 144 9 0.000000 8.36799979e-01 3
139 138 142 143 9 0.000000 8.36799979e-01 3
139 138 142 144 9 0.000000 8.36799979e-01 3
140 138 142 143 9 0.000000 5.85759997e-01 3
140 138 142 144 9 180.000000 1.10875998e+01 1
140 138 142 144 9 180.000000 5.43919981e-01 3
141 140 138 142 9 0.000000 1.21335995e+00 1
141 140 138 142 9 0.000000 2.59407997e+00 2
141 140 138 142 9 0.000000 2.09199995e-01 3
138 142 131 145 9 0.000000 8.36799979e-01 3
143 142 131 145 9 0.000000 8.36799979e-01 3
144 142 131 145 9 0.000000 8.36799979e-01 3
131 142 138 134 9 180.000000 7.94960022e-01 3
131 142 138 139 9 0.000000 8.36799979e-01 3
131 142 138 140 9 0.000000 8.36799979e-01 3
131 142 144 150 9 180.000000 5.43919981e-01 1
131 142 144 150 9 180.000000 1.04600000e+00 2
131 142 144 150 9 180.000000 2.51040012e-01 3
138 142 144 150 9 180.000000 5.43919981e-01 1
138 142 144 150 9 180.000000 1.04600000e+00 2
138 142 144 150 9 180.000000 2.51040012e-01 3
143 142 144 150 9 0.000000 1.18825603e+00 3
142 144 150 151 9 0.000000 1.18825603e+00 3
142 144 150 154 9 180.000000 2.09199995e-01 1
142 144 150 154 9 0.000000 3.80744004e+00 2
142 144 150 154 9 180.000000 5.31368017e+00 3
142 144 150 155 9 180.000000 1.71544003e+00 1
142 144 150 155 9 180.000000 2.76144004e+00 2
142 144 150 155 9 0.000000 6.69439983e+00 3
131 145 148 149 9 0.000000 1.21335995e+00 1
131 145 148 149 9 0.000000 2.59407997e+00 2
131 145 148 149 9 0.000000 2.09199995e-01 3
146 145 148 149 9 0.000000 7.53120005e-01 3
147 145 148 149 9 0.000000 7.53120005e-01 3
144 150 154 152 9 180.000000 1.71544003e+00 1
144 150 154 152 9 0.000000 3.72375989e+00 2
144 150 154 152 9 0.000000 2.09199995e-01 3
151 150 154 152 9 0.000000 1.18825603e+00 3
144 150 155 156 9 0.000000 8.36799979e-01 3
144 150 155 157 9 180.000000 1.10875998e+01 1
144 150 155 157 9 180.000000 5.43919981e-01 3
144 150 155 159 9 0.000000 8.36799979e-01 3
151 150 155 156 9 0.000000 8.36799979e-01 3
151 150 155 157 9 0.000000 5.85759997e-01 3
151 150 155 159 9 0.000000 8.36799979e-01 3
154 150 155 156 9 0.000000 8.36799979e-01 3
154 150 155 157 9 180.000000 1.15059996e+01 1
154 150 155 157 9 180.000000 1.08783996e+00 2
154 150 155 157 9 0.000000 4.18399990e-01 3
154 150 155 159 9 180.000000 1.29703999e+00 3
153 152 163 159 9 0.000000 8.36799979e-01 3
153 152 163 164 9 0.000000 8.36799979e-01 3
153 152 163 165 9 0.000000 8.36799979e-01 3
154 152 163 159 9 180.000000 1.29703999e+00 3
154 152 163 164 9 0.000000 8.36799979e-01 3
154 152 163 165 9 180.000000 5.69023991e+00 1
154 152 163 165 9 0.000000 6.69439971e-01 2
154 152 163 165 9 0.000000 4.22584009e+00 3
153 152 166 167 9 0.000000 8.36799979e-01 3
153 152 166 168 9 0.000000 8.36799979e-01 3
153 152 166 169 9 0.000000 5.85759997e-01 3
154 152 166 167 9 0.000000 8.36799979e-01 3
154 152 166 168 9 0.000000 8.36799979e-01 3
154 152 166 169 9 180.000000 3.13800001e+00 1
154 152 166 169 9 0.000000 7.11279988e-01 2
154 152 166 169 9 180.000000 1.04600000e+00 3
163 152 166 167 9 0.000000 8.36799979e-01 3
163 152 166 168 9 0.000000 8.36799979e-01 3
163 152 166 169 9 0.000000 8.36799979e-01 3
152 154 150 155 9 0.000000 8.36799979e-01 3
150 154 152 153 9 0.000000 1.18825603e+00 3
150 154 152 163 9 0.000000 8.36799979e-01 3
150 154 152 166 9 0.000000 8.36799979e-01 3
150 155 157 158 9 0.000000 1.21335995e+00 1
150 155 157 158 9 0.000000 2.59407997e+00 2
150 155 157 158 9 0.000000 2.09199995e-01 3
156 155 157 158 9 0.000000 7.53120005e-01 3
150 155 159 160 9 0.000000 8.36799979e-01 3
150 155 159 161 9 0.000000 8.36799979e-01 3
150 155 159 163 9 180.000000 7.94960022e-01 3
156 155 159 160 9 0.000000 8.36799979e-01 3
156 155 159 161 9 0.000000 5.85759997e-01 3
156 155 159 163 9 0.000000 8.36799979e-01 3
157 155 159 160 9 0.000000 5.85759997e-01 3
157 155 159 161 9 180.000000 1.10875998e+01 1
157 155 159 161 9 180.000000 5.43919981e-01 3
157 155 159 163 9 0.000000 8.36799979e-01 3
158 157 155 159 9 0.000000 1.21335995e+00 1
158 157 155 159 9 0.000000 2.59407997e+00 2
158 157 155 159 9 0.000000 2.09199995e-01 3
155 159 161 162 9 0.000000 1.21335995e+00 1
155 159 161 162 9 0.000000 2.59407997e+00 2
155 159 161 162 9 0.000000 2.09199995e-01 3
160 159 161 162 9 0.000000 7.53120005e-01 3
155 159 163 164 9 0.000000 8.36799979e-01 3
155 159 163 165 9 0.000000 8.36799979e-01 3
160 159 163 164 9 0.000000 8.36799979e-01 3
160 159 163 165 9 0.000000 8.36799979e-01 3
161 159 163 164 9 0.000000 5.85759997e-01 3
161 159 163 165 9 180.000000 1.10875998e+01 1
161 159 163 165 9 180.000000 5.43919981e-01 3
162 161 159 163 9 0.000000 1.21335995e+00 1
162 161 159 163 9 0.000000 2.59407997e+00 2
162 161 159 163 9 0.000000 2.09199995e-01 3
159 163 152 166 9 0.000000 8.36799979e-01 3
164 163 152 166 9 0.000000 8.36799979e-01 3
165 163 152 166 9 0.000000 8.36799979e-01 3
152 163 159 155 9 180.000000 7.94960022e-01 3
152 163 159 160 9 0.000000 8.36799979e-01 3
152 163 159 161 9 0.000000 8.36799979e-01 3
152 163 165 171 9 180.000000 5.43919981e-01 1
152 163 165 171 9 180.000000 1.04600000e+00 2
152 163 165 171 9 180.000000 2.51040012e-01 3
159 163 165 171 9 180.000000 5.43919981e-01 1
159 163 165 171 9 180.000000 1.04600000e+00 2
159 163 165 171 9 180.000000 2.51040012e-01 3
164 163 165 171 9 0.000000 1.18825603e+00 3
163 165 171 172 9 0.000000 1.18825603e+00 3
163 165 171 175 9 180.000000 2.09199995e-01 1
163 165 171 175 9 0.000000 3.80744004e+00 2
163 165 171 175 9 180.000000 5.31368017e+00 3
163 165 171 176 9 180.000000 1.71544003e+00 1
163 165 171 176 9 180.000000 2.76144004e+00 2
163 165 171 176 9 0.000000 6.69439983e+00 3
152 166 169 170 9 0.000000 1.21335995e+00 1
152 166 169 170 9 0.000000 2.59407997e+00 2
152 166 169 170 9 0.000000 2.09199995e-01 3
167 166 169 170 9 0.000000 7.53120005e-01 3
168 166 169 170 9 0.000000 7.53120005e-01 3
165 171 175 173 9 180.000000 1.71544003e+00 1
165 171 175 173 9 0.000000 3.72375989e+00 2
165 171 175 173 9 0.000000 2.09199995e-01 3
172 171 175 173 9 0.000000 1.18825603e+00 3
165 171 176 177 9 0.000000 8.36799979e-01 3
165 171 176 178 9 180.000000 1.10875998e+01 1
165 171 176 178 9 180.000000 5.43919981e-01 3
165 171 176 180 9 0.000000 8.36799979e-01 3
172 171 176 177 9 0.000000 8.36799979e-01 3
172 171 176 178 9 0.000000 5.85759997e-01 3
172 171 176 180 9 0.000000 8.36799979e-01 3
175 171 176 177 9 0.000000 8.36799979e-01 3
175 171 176 178 9 180.000000 1.15059996e+01 1
175 171 176 178 9 180.000000 1.08783996e+00 2
175 171 176 178 9 0.000000 4.18399990e-01 3
175 171 176 180 9 180.000000 1.29703999e+00 3
174 173 184 180 9 0.000000 8.36799979e-01 3
174 173 184 185 9 0.000000 8.36799979e-01 3
174 173 184 186 9 0.000000 8.36799979e-01 3
175 173 184 180 9 180.000000 1.29703999e+00 3
175 173 184 185 9 0.000000 8.36799979e-01 3
175 173 184 186 9 180.000000 5.69023991e+00 1
175 173 184 186 9 0.000000 6.69439971e-01 2
175 173 184 186 9 0.000000 4.22584009e+00 3
174 173 187 188 9 0.000000 8.36799979e-01 3
174 173 187 189 9 0.000000 8.36799979e-01 3
174 173 187 190 9 0.000000 5.85759997e-01 3
175 173 187 188 9 0.000000 8.36799979e-01 3
175 173 187 189 9 0.000000 8.36799979e-01 3
175 173 187 190 9 180.000000 3.13800001e+00 1
175 173 187 190 9 0.000000 7.11279988e-01 2
175 173 187 190 9 180.000000 1.04600000e+00 3
184 173 187 188 9 0.000000 8.36799979e-01 3
184 173 187 189 9 0.000000 8.36799979e-01 3
184 173 187 190 9 0.000000 8.36799979e-01 3
173 175 171 176 9 0.000000 8.36799979e-01 3
171 175 173 174 9 0.000000 1.18825603e+00 3
171 175 173 184 9 0.000000 8.36799979e-01 3
171 175 173 187 9 0.000000 8.36799979e-01 3
171 176 178 179 9 0.000000 1.21335995e+00 1
171 176 178 179 9 0.000000 2.59407997e+00 2
171 176 178 179 9 0.000000 2.09199995e-01 3
177 176 178 179 9 0.000000 7.53120005e-01 3
171 176 180 181 9 0.000000 8.36799979e-01 3
171 176 180 182 9 0.000000 8.36799979e-01 3
171 176 180 184 9 180.000000 7.94960022e-01 3
177 176 180 181 9 0.000000 8.36799979e-01 3
177 176 180 182 9 0.000000 5.85759997e-01 3
177 176 180 184 9 0.000000 8.36799979e-01 3
178 176 180 181 9 0.000000 5.85759997e-01 3
178 176 180 182 9 180.000000 1.10875998e+01 1
178 176 180 182 9 180.000000 5.43919981e-01 3
178 176 180 184 9 0.000000 8.36799979e-01 3
179 178 176 180 9 0.000000 1.21335995e+00 1
179 178 176 180 9 0.000000 2.59407997e+00 2
179 178 176 180 9 0.000000 2.09199995e-01 3
176 180 182 183 9 0.000000 1.21335995e+00 1
176 180 182 183 9 0.000000 2.59407997e+00 2
176 180 182 183 9 0.000000 2.09199995e-01 3
181 180 182 183 9 0.000000 7.53120005e-01 3
176 180 184 185 9 0.000000 8.36799979e-01 3
176 180 184 186 9 0.000000 8.36799979e-01 3
181 180 184 185 9 0.000000 8.36799979e-01 3
181 180 184 186 9 0.000000 8.36799979e-01 3
182 180 184 185 9 0.000000 5.85759997e-01 3
182 180 184 186 9 180.000000 1.10875998e+01 1
182 180 184 186 9 180.000000 5.43919981e-01 3
183 182 180 184 9 0.000000 1.21335995e+00 1
183 182 180 184 9 0.000000 2.59407997e+00 2
183 182 180 184 9 0.000000 2.09199995e-01 3
180 184 173 187 9 0.000000 8.36799979e-01 3
185 184 173 187 9 0.000000 8.36799979e-01 3
186 184 173 187 9 0.000000 8.36799979e-01 3
173 184 180 176 9 180.000000 7.94960022e-01 3
173 184 180 181 9 0.000000 8.36799979e-01 3
173 184 180 182 9 0.000000 8.36799979e-01 3
173 184 186 192 9 180.000000 5.43919981e-01 1
173 184 186 192 9 180.000000 1.04600000e+00 2
173 184 186 192 9 180.000000 2.51040012e-01 3
180 184 186 192 9 180.000000 5.43919981e-01 1
180 184 186 192 9 180.000000 1.04600000e+00 2
180 184 186 192 9 180.000000 2.51040012e-01 3
185 184 186 192 9 0.000000 1.18825603e+00 3
184 186 192 193 9 0.000000 1.18825603e+00 3
184 186 192 196 9 180.000000 2.09199995e-01 1
184 186 192 196 9 0.000000 3.80744004e+00 2
184 186 192 196 9 180.000000 5.31368017e+00 3
184 186 192 197 9 180.000000 1.71544003e+00 1
184 186 192 197 9 180.000000 2.76144004e+00 2
184 186 192 197 9 0.000000 6.69439983e+00 3
173 187 190 191 9 0.000000 1.21335995e+00 1
173 187 190 191 9 0.000000 2.59407997e+00 2
173 187 190 191 9 0.000000 2.09199995e-01 3
188 187 190 191 9 0.000000 7.53120005e-01 3
189 187 190 191 9 0.000000 7.53120005e-01 3
186 192 196 194 9 180.000000 1.71544003e+00 1
186 192 196 194 9 0.000000 3.72375989e+00 2
186 192 196 194 9 0.000000 2.09199995e-01 3
193 192 196 194 9 0.000000 1.18825603e+00 3
186 192 197 198 9 0.000000 8.36799979e-01 3
186 192 197 199 9 180.000000 1.10875998e+01 1
186 192 197 199 9 180.000000 5.43919981e-01 3
186 192 197 201 9 0.000000 8.36799979e-01 3
193 192 197 198 9 0.000000 8.36799979e-01 3
193 192 197 199 9 0.000000 5.85759997e-01 3
193 192 197 201 9 0.000000 8.36799979e-01 3
196 192 197 198 9 0.000000 8.36799979e-01 3
196 192 197 199 9 180.000000 1.15059996e+01 1
196 192 197 199 9 180.000000 1.08783996e+00 2
196 192 197 199 9 0.000000 4.18399990e-01 3
196 192 197 201 9 180.000000 1.29703999e+00 3
195 194 205 201 9 0.000000 8.36799979e-01 3
195 194 205 206 9 0.000000 8.36799979e-01 3
195 194 205 207 9 0.000000 8.36799979e-01 3
196 194 205 201 9 180.000000 1.29703999e+00 3
196 194 205 206 9 0.000000 8.36799979e-01 3
196 194 205 207 9 180.000000 5.69023991e+00 1
196 194 205 207 9 0.000000 6.69439971e-01 2
196 194 205 207 9 0.000000 4.22584009e+00 3
195 194 208 209 9 0.000000 8.36799979e-01 3
195 194 208 210 9 0.000000 8.36799979e-01 3
195 194 208 211 9 0.000000 5.85759997e-01 3
196 194 208 209 9 0.000000 8.36799979e-01 3
196 194 208 210 9 0.000000 8.36799979e-01 3
196 194 208 211 9 180.000000 3.13800001e+00 1
196 194 208 211 9 0.000000 7.11279988e-01 2
196 194 208 211 9 180.000000 1.04600000e+00 3
205 194 208 209 9 0.000000 8.36799979e-01 3
205 194 208 210 9 0.000000 8.36799979e-01 3
205 194 208 211 9 0.000000 8.36799979e-01 3
194 196 192 197 9 0.000000 8.36799979e-01 3
192 196 194 195 9 0.000000 1.18825603e+00 3
192 196 194 205 9 0.000000 8.36799979e-01 3
192 196 194 208 9 0.000000 8.36799979e-01 3
192 197 199 200 9 0.000000 1.21335995e+00 1
192 197 199 200 9 0.000000 2.59407997e+00 2
192 197 199 200 9 0.000000 2.09199995e-01 3
198 197 199 200 9 0.000000 7.53120005e-01 3
192 197 201 202 9 0.000000 8.36799979e-01 3
192 197 201 203 9 0.000000 8.36799979e-01 3
192 197 201 205 9 180.000000 7.94960022e-01 3
198 197 201 202 9 0.000000 8.36799979e-01 3
198 197 201 203 9 0.000000 5.85759997e-01 3
198 197 201 205 9 0.000000 8.36799979e-01 3
199 197 201 202 9 0.000000 5.85759997e-01 3
199 197 201 203 9 180.000000 1.10875998e+01 1
199 197 201 203 9 180.000000 5.43919981e-01 3
199 197 201 205 9 0.000000 8.36799979e-01 3
200 199 197 201 9 0.000000 1.21335995e+00 1
200 199 197 201 9 0.000000 2.59407997e+00 2
200 199 197 201 9 0.000000 2.09199995e-01 3
197 201 203 204 9 0.000000 1.21335995e+00 1
197 201 203 204 9 0.000000 2.59407997e+00 2
197 201 203 204 9 0.000000 2.09199995e-01 3
202 201 203 204 9 0.000000 7.53120005e-01 3
197 201 205 206 9 0.000000 8.36799979e-01 3
197 201 205 207 9 0.000000 8.36799979e-01 3
202 201 205 206 9 0.000000 8.36799979e-01 3
202 201 205 207 9 0.000000 8.36799979e-01 3
203 201 205 206 9 0.000000 5.85759997e-01 3
203 201 205 207 9 180.000000 1.10875998e+01 1
203 201 205 207 9 180.000000 5.43919981e-01 3
204 203 201 205 9 0.000000 1.21335995e+00 1
204 203 201 205 9 0.000000 2.59407997e+00 2
204 203 201 205 9 0.000000 2.09199995e-01 3
201 205 194 208 9 0.000000 8.36799979e-01 3
206 205 194 208 9 0.000000 8.36799979e-01 3
207 205 194 208 9 0.000000 8.36799979e-01 3
194 205 201 197 9 180.000000 7.94960022e-01 3
194 205 201 202 9 0.000000 8.36799979e-01 3
194 205 201 203 9 0.000000 8.36799979e-01 3
194 205 207 213 9 180.000000 5.43919981e-01 1
194 205 207 213 9 180.000000 1.04600000e+00 2
194 205 207 213 9 180.000000 2.51040012e-01 3
201 205 207 213 9 180.000000 5.43919981e-01 1
201 205 207 213 9 180.000000 1.04600000e+00 2
201 205 207 213 9 180.000000 2.51040012e-01 3
206 205 207 213 9 0.000000 1.18825603e+00 3
205 207 213 214 9 0.000000 1.18825603e+00 3
205 207 213 217 9 180.000000 2.09199995e-01 1
205 207 213 217 9 0.000000 3.80744004e+00 2
205 207 213 217 9 180.000000 5.31368017e+00 3
205 207 213 218 9 180.000000 1.71544003e+00 1
205 207 213 218 9 180.000000 2.76144004e+00 2
205 207 213 218 9 0.000000 6.69439983e+00 3
194 208 211 212 9 0.000000 1.21335995e+00 1
194 208 211 212 9 0.000000 2.59407997e+00 2
194 208 211 212 9 0.000000 2.09199995e-01 3
209 208 211 212 9 0.000000 7.53120005e-01 3
210 208 211 212 9 0.000000 7.53120005e-01 3
207 213 217 215 9 180.000000 1.71544003e+00 1
207 213 217 215 9 0.000000 3.72375989e+00 2
207 213 217 215 9 0.000000 2.09199995e-01 3
214 213 217 215 9 0.000000 1.18825603e+00 3
207 213 218 219 9 0.000000 8.36799979e-01 3
207 213 218 220 9 180.000000 1.10875998e+01 1
207 213 218 220 9 180.000000 5.43919981e-01 3
207 213 218 222 9 0.000000 8.36799979e-01 3
214 213 218 219 9 0.000000 8.36799979e-01 3
214 213 218 220 9 0.000000 5.85759997e-01 3
214 213 218 222 9 0.000000 8.36799979e-01 3
217 213 218 219 9 0.000000 8.36799979e-01 3
217 213 218 220 9 180.000000 1.15059996e+01 1
217 213 218 220 9 180.000000 1.08783996e+00 2
217 213 218 220 9 0.000000 4.18399990e-01 3
217 213 218 222 9 180.000000 1.29703999e+00 3
216 215 226 222 9 0.000000 8.36799979e-01 3
216 215 226 227 9 0.000000 8.36799979e-01 3
216 215 226 228 9 0.000000 8.36799979e-01 3
217 215 226 222 9 180.000000 1.29703999e+00 3
217 215 226 227 9 0.000000 8.36799979e-01 3
217 215 226 228 9 180.000000 5.69023991e+00 1
217 215 226 228 9 0.000000 6.69439971e-01 2
217 215 226 228 9 0.000000 4.22584009e+00 3
216 215 229 230 9 0.000000 8.36799979e-01 3
216 215 229 231 9 0.000000 8.36799979e-01 3
216 215 229 232 9 0.000000 5.85759997e-01 3
217 215 229 230 9 0.000000 8.36799979e-01 3
217 215 229 231 9 0.000000 8.36799979e-01 3
217 215 229 232 9 180.000000 3.13800001e+00 1
217 215 229 232 9 0.000000 7.11279988e-01 2
217 215 229 232 9 180.000000 1.04600000e+00 3
226 215 229 230 9 0.000000 8.36799979e-01 3
226 215 229 231 9 0.000000 8.36799979e-01 3
226 215 229 232 9 0.000000 8.36799979e-01 3
215 217 213 218 9 0.000000 8.36799979e-01 3
213 217 215 216 9 0.000000 1.18825603e+00 3
213 217 215 226 9 0.000000 8.36799979e-01 3
213 217 215 229 9 0.000000 8.36799979e-01 3
213 218 220 221 9 0.000000 1.21335995e+00 1
213 218 220 221 9 0.000000 2.59407997e+00 2
213 218 220 221 9 0.000000 2.09199995e-01 3
219 218 220 221 9 0.000000 7.53120005e-01 3
213 218 222 223 9 0.000000 8.36799979e-01 3
213 218 222 224 9 0.000000 8.36799979e-01 3
213 218 222 226 9 180.000000 7.94960022e-01 3
219 218 222 223 9 0.000000 8.36799979e-01 3
219 218 222 224 9 0.000000 5.85759997e-01 3
219 218 222 226 9 0.000000 8.36799979e-01 3
220 218 222 223 9 0.000000 5.85759997e-01 3
220 218 222 224 9 180.000000 1.10875998e+01 1
220 218 222 224 9 180.000000 5.43919981e-01 3
220 218 222 226 9 0.000000 8.36799979e-01 3
221 220 218 222 9 0.000000 1.21335995e+00 1
221 220 218 222 9 0.000000 2.59407997e+00 2
221 220 218 222 9 0.000000 2.09199995e-01 3
218 222 224 225 9 0.000000 1.21335995e+00 1
218 222 224 225 9 0.000000 2.59407997e+00 2
218 222 224 225 9 0.000000 2.09199995e-01 3
223 222 224 225 9 0.000000 7.53120005e-01 3
218 222 226 227 9 0.000000 8.36799979e-01 3
218 222 226 228 9 0.000000 8.36799979e-01 3
223 222 226 227 9 0.000000 8.36799979e-01 3
223 222 226 228 9 0.000000 8.36799979e-01 3
224 222 226 227 9 0.000000 5.85759997e-01 3
224 222 226 228 9 180.000000 1.10875998e+01 1
224 222 226 228 9 180.000000 5.43919981e-01 3
225 224 222 226 9 0.000000 1.21335995e+00 1
225 224 222 226 9 0.000000 2.59407997e+00 2
225 224 222 226 9 0.000000 2.09199995e-01 3
222 226 215 229 9 0.000000 8.36799979e-01 3
227 226 215 229 9 0.000000 8.36799979e-01 3
228 226 215 229 9 0.000000 8.36799979e-01 3
215 226 222 218 9 180.000000 7.94960022e-01 3
215 226 222 223 9 0.000000 8.36799979e-01 3
215 226 222 224 9 0.000000 8.36799979e-01 3
215 226 228 234 9 180.000000 5.43919981e-01 1
215 226 228 234 9 180.000000 1.04600000e+00 2
215 226 228 234 9 180.000000 2.51040012e-01 3
222 226 228 234 9 180.000000 5.43919981e-01 1
222 226 228 234 9 180.000000 1.04600000e+00 2
222 226 228 234 9 180.000000 2.51040012e-01 3
227 226 228 234 9 0.000000 1.18825603e+00 3
226 228 234 235 9 0.000000 1.18825603e+00 3
226 228 234 238 9 180.000000 2.09199995e-01 1
226 228 234 238 9 0.000000 3.80744004e+00 2
226 228 234 238 9 180.000000 5.31368017e+00 3
226 228 234 239 9 180.000000 1.71544003e+00 1
226 228 234 239 9 180.000000 2.76144004e+00 2
226 228 234 239 9 0.000000 6.69439983e+00 3
215 229 232 233 9 0.000000 1.21335995e+00 1
215 229 232 233 9 0.000000 2.59407997e+00 2
215 229 232 233 9 0.000000 2.09199995e-01 3
230 229 232 233 9 0.000000 7.53120005e-01 3
231 229 232 233 9 0.000000 7.53120005e-01 3
228 234 238 236 9 180.000000 1.71544003e+00 1
228 234 238 236 9 0.000000 3.72375989e+00 2
228 234 238 236 9 0.000000 2.09199995e-01 3
235 234 238 236 9 0.000000 1.18825603e+00 3
228 234 239 240 9 0.000000 8.36799979e-01 3
228 234 239 241 9 180.000000 1.10875998e+01 1
228 234 239 241 9 180.000000 5.43919981e-01 3
228 234 239 243 9 0.000000 8.36799979e-01 3
235 234 239 240 9 0.000000 8.36799979e-01 3
235 234 239 241 9 0.000000 5.85759997e-01 3
235 234 239 243 9 0.000000 8.36799979e-01 3
238 234 239 240 9 0.000000 8.36799979e-01 3
238 234 239 241 9 180.000000 1.15059996e+01 1
238 234 239 241 9 180.000000 1.08783996e+00 2
238 234 239 241 9 0.000000 4.18399990e-01 3
238 234 239 243 9 180.000000 1.29703999e+00 3
237 236 247 243 9 0.000000 8.36799979e-01 3
237 236 247 248 9 0.000000 8.36799979e-01 3
237 236 247 249 9 0.000000 5.85759997e-01 3
238 236 247 243 9 180.000000 1.29703999e+00 3
238 236 247 248 9 0.000000 8.36799979e-01 3
238 236 247 249 9 180.000000 5.69023991e+00 1
238 236 247 249 9 0.000000 6.69439971e-01 2
238 236 247 249 9 0.000000 4.22584009e+00 3
237 236 251 252 9 0.000000 8.36799979e-01 3
237 236 251 253 9 0.000000 8.36799979e-01 3
237 236 251 254 9 0.000000 5.85759997e-01 3
238 236 251 252 9 0.000000 8.36799979e-01 3
238 236 251 253 9 0.000000 8.36799979e-01 3
238 236 251 254 9 180.000000 3.13800001e+00 1
238 236 251 254 9 0.000000 7.11279988e-01 2
238 236 251 254 9 180.000000 1.04600000e+00 3
247 236 251 252 9 0.000000 8.36799979e-01 3
247 236 251 253 9 0.000000 8.36799979e-01 3
247 236 251 254 9 0.000000 8.36799979e-01 3
236 238 234 239 9 0.000000 8.36799979e-01 3
234 238 236 237 9 0.000000 1.18825603e+00 3
234 238 236 247 9 0.000000 8.36799979e-01 3
234 238 236 251 9 0.000000 8.36799979e-01 3
234 239 241 242 9 0.000000 1.21335995e+00 1
234 239 241 242 9 0.000000 2.59407997e+00 2
234 239 241 242 9 0.000000 2.09199995e-01 3
240 239 241 242 9 0.000000 7.53120005e-01 3
234 239 243 244 9 0.000000 8.36799979e-01 3
234 239 243 245 9 0.000000 8.36799979e-01 3
234 239 243 247 9 180.000000 7.94960022e-01 3
240 239 243 244 9 0.000000 8.36799979e-01 3
240 239 243 245 9 0.000000 5.85759997e-01 3
240 239 243 247 9 0.000000 8.36799979e-01 3
241 239 243 244 9 0.000000 5.85759997e-01 3
241 239 243 245 9 180.000000 1.10875998e+01 1
241 239 243 245 9 180.000000 5.43919981e-01 3
241 239 243 247 9 0.000000 8.36799979e-01 3
242 241 239 243 9 0.000000 1.21335995e+00 1
242 241 239 243 9 0.000000 2.59407997e+00 2
242 241 239 243 9 0.000000 2.09199995e-01 3
239 243 245 246 9 0.000000 1.21335995e+00 1
239 243 245 246 9 0.000000 2.59407997e+00 2
239 243 245 246 9 0.000000 2.09199995e-01 3
244 243 245 246 9 0.000000 7.53120005e-01 3
239 243 247 248 9 0.000000 8.36799979e-01 3
239 243 247 249 9 0.000000 8.36799979e-01 3
244 243 247 248 9 0.000000 8.36799979e-01 3
244 243 247 249 9 0.000000 5.85759997e-01 3
245 243 247 248 9 0.000000 5.85759997e-01 3
245 243 247 249 9 180.000000 1.10875998e+01 1
245 243 247 249 9 180.000000 5.43919981e-01 3
246 245 243 247 9 0.000000 1.21335995e+00 1
246 245 243 247 9 0.000000 2.59407997e+00 2
246 245 243 247 9 0.000000 2.09199995e-01 3
243 247 236 251 9 0.000000 8.36799979e-01 3
248 247 236 251 9 0.000000 8.36799979e-01 3
249 247 236 251 9 0.000000 8.36799979e-01 3
236 247 243 239 9 180.000000 7.94960022e-01 3
236 247 243 244 9 0.000000 8.36799979e-01 3
236 247 243 245 9 0.000000 8.36799979e-01 3
236 247 249 250 9 0.000000 1.21335995e+00 1
236 247 249 250 9 0.000000 2.59407997e+00 2
236 247 249 250 9 0.000000 2.09199995e-01 3
243 247 249 250 9 0.000000 1.21335995e+00 1
243 247 249 250 9 0.000000 2.59407997e+00 2
243 247 249 250 9 0.000000 2.09199995e-01 3
248 247 249 250 9 0.000000 7.53120005e-01 3
236 251 254 255 9 0.000000 1.21335995e+00 1
236 251 254 255 9 0.000000 2.59407997e+00 2
236 251 254 255 9 0.000000 2.09199995e-01 3
252 251 254 255 9 0.000000 7.53120005e-01 3
253 251 254 255 9 0.000000 7.53120005e-01 3

[ pairs ]
1 6 1 2.05351607e-04 1.18778622e-07
1 11 1 1.65021702e-05 7.58667518e-10
1 13 1 2.05351607e-04 1.18778622e-07
1 14 1 8.88851762e-04 1.07706853e-06
1 16 1 2.51955120e-04 3.79310393e-07
1 19 1 2.51955120e-04 3.79310393e-07
2 4 1 5.58290640e-06 4.09339715e-11
2 5 1 2.05351607e-04 1.18778622e-07
2 9 1 1.39522090e-04 2.58476920e-08
2 10 1 6.97206240e-04 3.12392729e-07
2 12 1 2.05351607e-04 1.18778622e-07
3 5 1 8.88851762e-04 1.07706853e-06
3 9 1 6.97206240e-04 3.12392729e-07
3 10 1 3.11026420e-03 3.00895385e-06
3 12 1 8.88851762e-04 1.07706853e-06
4 7 1 2.46214313e-05 5.34067290e-10
4 8 1 1.65021702e-05 7.58667518e-10
5 8 1 2.51955120e-04 3.79310393e-07
5 13 1 2.05351607e-04 1.18778622e-07
5 14 1 8.88851762e-04 1.07706853e-06
5 23 1 1.65021702e-05 7.58667518e-10
5 24 1 2.51955120e-04 3.79310393e-07
6 12 1 2.05351607e-04 1.18778622e-07
6 17 1 1.39522090e-04 2.58476920e-08
6 18 1 4.01102036e-04 1.43301875e-07
6 20 1 1.23046921e-04 2.27955219e-08
6 21 1 1.23046921e-04 2.27955219e-08
6 22 1 6.97206240e-04 3.12392729e-07
7 9 1 4.01102036e-04 1.43301875e-07
7 10 1 1.83962565e-03 1.45896058e-06
7 12 1 5.29653335e-04 5.30068291e-07
7 17 1 4.01102036e-04 1.43301875e-07
7 18 1 1.08070031e-03 6.97844825e-07
7 20 1 3.53738782e-04 1.26380371e-07
7 21 1 3.53738782e-04 1.26380371e-07
7 22 1 1.83962565e-03 1.45896058e-06
8 15 1 1.65021702e-05 7.58667518e-10
8 17 1 2.05351607e-04 1.18778622e-07
8 18 1 5.29653335e-04 5.30068291e-07
9 11 1 5.58290640e-06 4.09339715e-11
9 13 1 1.39522090e-04 2.58476920e-08
9 14 1 6.97206240e-04 3.12392729e-07
9 16 1 2.05351607e-04 1.18778622e-07
10 13 1 6.97206240e-04 3.12392729e-07
10 14 1 3.11026420e-03 3.00895385e-06
10 16 1 8.88851762e-04 1.07706853e-06
11 12 1 1.65021702e-05 7.58667518e-10
12 19 1 2.51955120e-04 3.79310393e-07
12 24 1 2.51955120e-04 3.79310393e-07
13 15 1 5.58290640e-06 4.09339715e-11
13 17 1 1.39522090e-04 2.58476920e-08
13 18 1 4.01102036e-04 1.43301875e-07
14 17 1 6.97206240e-04 3.12392729e-07
14 18 1 1.83962565e-03 1.45896058e-06
15 16 1 1.65021702e-05 7.58667518e-10
16 20 1 1.81103096e-04 1.04752900e-07
16 21 1 1.81103096e-04 1.04752900e-07
16 22 1 8.88851762e-04 1.07706853e-06
16 25 1 2.05351607e-04 1.18778622e-07
16 28 1 5.29653335e-04 5.30068291e-07
16 29 1 2.51955120e-04 3.79310393e-07
17 19 1 2.05351607e-04 1.18778622e-07
17 24 1 2.05351607e-04 1.18778622e-07
18 19 1 5.29653335e-04 5.30068291e-07
18 26 1 5.29653335e-04 5.30068291e-07
18 30 1 4.01102036e-04 1.43301875e-07
18 31 1 1.83962565e-03 1.45896058e-06
18 33 1 5.29653335e-04 5.30068291e-07
20 23 1 4.92366098e-06 3.61003727e-11
21 23 1 4.92366098e-06 3.61003727e-11
24 27 1 2.05351607e-04 1.18778622e-07
24 32 1 1.65021702e-05 7.58667518e-10
24 34 1 2.05351607e-04 1.18778622e-07
24 35 1 8.88851762e-04 1.07706853e-06
24 37 1 2.51955120e-04 3.79310393e-07
24 40 1 2.51955120e-04 3.79310393e-07
25 26 1 2.05351607e-04 1.18778622e-07
25 30 1 1.39522090e-04 2.58476920e-08
25 31 1 6.97206240e-04 3.12392729e-07
25 33 1 2.05351607e-04 1.18778622e-07
26 29 1 2.51955120e-04 3.79310393e-07
26 34 1 2.05351607e-04 1.18778622e-07
26 35 1 8.88851762e-04 1.07706853e-06
26 44 1 1.65021702e-05 7.58667518e-10
26 45 1 2.51955120e-04 3.79310393e-07
27 33 1 2.05351607e-04 1.18778622e-07
27 38 1 1.39522090e-04 2.58476920e-08
27 39 1 4.01102036e-04 1.43301875e-07
27 41 1 1.23046921e-04 2.27955219e-08
27 42 1 1.23046921e-04 2.27955219e-08
27 43 1 6.97206240e-04 3.12392729e-07
28 30 1 4.01102036e-04 1.43301875e-07
28 31 1 1.83962565e-03 1.45896058e-06
28 33 1 5.29653335e-04 5.30068291e-07
28 38 1 4.01102036e-04 1.43301875e-07
28 39 1 1.08070031e-03 6.97844825e-07
28 41 1 3.53738782e-04 1.26380371e-07
28 42 1 3.53738782e-04 1.26380371e-07
28 43 1 1.83962565e-03 1.45896058e-06
29 36 1 1.65021702e-05 7.58667518e-10
29 38 1 2.05351607e-04 1.18778622e-07
29 39 1 5.29653335e-04 5.30068291e-07
30 32 1 5.58290640e-06 4.09339715e-11
30 34 1 1.39522090e-04 2.58476920e-08
30 35 1 6.97206240e-04 3.12392729e-07
30 37 1 2.05351607e-04 1.18778622e-07
31 34 1 6.97206240e-04 3.12392729e-07
31 35 1 3.11026420e-03 3.00895385e-06
31 37 1 8.88851762e-04 1.07706853e-06
32 33 1 1.65021702e-05 7.58667518e-10
33 40 1 2.51955120e-04 3.79310393e-07
33 45 1 2.51955120e-04 3.79310393e-07
34 36 1 5.58290640e-06 4.09339715e-11
34 38 1 1.39522090e-04 2.58476920e-08
34 39 1 4.01102036e-04 1.43301875e-07
35 38 1 6.97206240e-04 3.12392729e-07
35 39 1 1.83962565e-03 1.45896058e-06
36 37 1 1.65021702e-05 7.58667518e-10
37 41 1 1.81103096e-04 1.04752900e-07
37 42 1 1.81103096e-04 1.04752900e-07
37 43 1 8.88851762e-04 1.07706853e-06
37 46 1 2.05351607e-04 1.18778622e-07
37 49 1 5.29653335e-04 5.30068291e-07
37 50 1 2.51955120e-04 3.79310393e-07
38 40 1 2.05351607e-04 1.18778622e-07
38 45 1 2.05351607e-04 1.18778622e-07
39 40 1 5.29653335e-04 5.30068291e-07
39 47 1 5.29653335e-04 5.30068291e-07
39 51 1 4.01102036e-04 1.43301875e-07
39 52 1 1.83962565e-03 1.45896058e-06
39 54 1 5.29653335e-04 5.30068291e-07
41 44 1 4.92366098e-06 3.61003727e-11
42 44 1 4.92366098e-06 3.61003727e-11
45 48 1 2.05351607e-04 1.18778622e-07
45 53 1 1.65021702e-05 7.58667518e-10
45 55 1 2.05351607e-04 1.18778622e-07
45 56 1 8.88851762e-04 1.07706853e-06
45 58 1 2.51955120e-04 3.79310393e-07
45 61 1 2.51955120e-04 3.79310393e-07
46 47 1 2.05351607e-04 1.18778622e-07
46 51 1 1.39522090e-04 2.58476920e-08
46 52 1 6.97206240e-04 3.12392729e-07
46 54 1 2.05351607e-04 1.18778622e-07
47 50 1 2.51955120e-04 3.79310393e-07
47 55 1 2.05351607e-04 1.18778622e-07
47 56 1 8.88851762e-04 1.07706853e-06
47 65 1 1.65021702e-05 7.58667518e-10
47 66 1 2.51955120e-04 3.79310393e-07
48 54 1 2.05351607e-04 1.18778622e-07
48 59 1 1.39522090e-04 2.58476920e-08
48 60 1 4.01102036e-04 1.43301875e-07
48 62 1 1.23046921e-04 2.27955219e-08
48 63 1 1.23046921e-04 2.27955219e-08
48 64 1 6.97206240e-04 3.12392729e-07
49 51 1 4.01102036e-04 1.43301875e-07
49 52 1 1.83962565e-03 1.45896058e-06
49 54 1 5.29653335e-04 5.30068291e-07
49 59 1 4.01102036e-04 1.43301875e-07
49 60 1 1.08070031e-03 6.97844825e-07
49 62 1 3.53738782e-04 1.26380371e-07
49 63 1 3.53738782e-04 1.26380371e-07
49 64 1 1.83962565e-03 1.45896058e-06
50 57 1 1.65021702e-05 7.58667518e-10
50 59 1 2.05351607e-04 1.18778622e-07
50 60 1 5.29653335e-04 5.30068291e-07
51 53 1 5.58290640e-06 4.09339715e-11
51 55 1 1.39522090e-04 2.58476920e-08
51 56 1 6.97206240e-04 3.12392729e-07
51 58 1 2.05351607e-04 1.18778622e-07
52 55 1 6.97206240e-04 3.12392729e-07
52 56 1 3.11026420e-03 3.00895385e-06
52 58 1 8.88851762e-04 1.07706853e-06
53 54 1 1.65021702e-05 7.58667518e-10
54 61 1 2.51955120e-04 3.79310393e-07
54 66 1 2.51955120e-04 3.79310393e-07
55 57 1 5.58290640e-06 4.09339715e-11
55 59 1 1.39522090e-04 2.58476920e-08
55 60 1 4.01102036e-04 1.43301875e-07
56 59 1 6.97206240e-04 3.12392729e-07
56 60 1 1.83962565e-03 1.45896058e-06
57 58 1 1.65021702e-05 7.58667518e-10
58 62 1 1.81103096e-04 1.04752900e-07
58 63 1 1.81103096e-04 1.04752900e-07
58 64 1 8.88851762e-04 1.07706853e-06
58 67 1 2.05351607e-04 1.18778622e-07
58 70 1 5.29653335e-04 5.30068291e-07
58 71 1 2.51955120e-04 3.79310393e-07
59 61 1 2.05351607e-04 1.18778622e-07
59 66 1 2.05351607e-04 1.18778622e-07
60 61 1 5.29653335e-04 5.30068291e-07
60 68 1 5.29653335e-04 5.30068291e-07
60 72 1 4.01102036e-04 1.43301875e-07
60 73 1 1.83962565e-03 1.45896058e-06
60 75 1 5.29653335e-04 5.30068291e-07
62 65 1 4.92366098e-06 3.61003727e-11
63 65 1 4.92366098e-06 3.61003727e-11
66 69 1 2.05351607e-04 1.18778622e-07
66 74 1 1.65021702e-05 7.58667518e-10
66 76 1 2.05351607e-04 1.18778622e-07
66 77 1 8.88851762e-04 1.07706853e-06
66 79 1 2.51955120e-04 3.79310393e-07
66 82 1 2.51955120e-04 3.79310393e-07
67 68 1 2.05351607e-04 1.18778622e-07
67 72 1 1.39522090e-04 2.58476920e-08
67 73 1 6.97206240e-04 3.12392729e-07
67 75 1 2.05351607e-04 1.18778622e-07
68 71 1 2.51955120e-04 3.79310393e-07
68 76 1 2.05351607e-04 1.18778622e-07
68 77 1 8.88851762e-04 1.07706853e-06
68 86 1 1.65021702e-05 7.58667518e-10
68 87 1 2.51955120e-04 3.79310393e-07
69 75 1 2.05351607e-04 1.18778622e-07
69 80 1 1.39522090e-04 2.58476920e-08
69 81 1 4.01102036e-04 1.43301875e-07
69 83 1 1.23046921e-04 2.27955219e-08
69 84 1 1.23046921e-04 2.27955219e-08
69 85 1 6.97206240e-04 3.12392729e-07
70 72 1 4.01102036e-04 1.43301875e-07
70 73 1 1.83962565e-03 1.45896058e-06
70 75 1 5.29653335e-04 5.30068291e-07
70 80 1 4.01102036e-04 1.43301875e-07
70 81 1 1.08070031e-03 6.97844825e-07
70 83 1 3.53738782e-04 1.26380371e-07
70 84 1 3.53738782e-04 1.26380371e-07
70 85 1 1.83962565e-03 1.45896058e-06
71 78 1 1.65021702e-05 7.58667518e-10
71 80 1 2.05351607e-04 1.18778622e-07
71 81 1 5.29653335e-04 5.30068291e-07
72 74 1 5.58290640e-06 4.09339715e-11
72 76 1 1.39522090e-04 2.58476920e-08
72 77 1 6.97206240e-04 3.12392729e-07
72 79 1 2.05351607e-04 1.18778622e-07
73 76 1 6.97206240e-04 3.12392729e-07
73 77 1 3.11026420e-03 3.00895385e-06
73 79 1 8.88851762e-04 1.07706853e-06
74 75 1 1.65021702e-05 7.58667518e-10
75 82 1 2.51955120e-04 3.79310393e-07
75 87 1 2.51955120e-04 3.79310393e-07
76 78 1 5.58290640e-06 4.09339715e-11
76 80 1 1.39522090e-04 2.58476920e-08
76 81 1 4.01102036e-04 1.43301875e-07
77 80 1 6.97206240e-04 3.12392729e-07
77 81 1 1.83962565e-03 1.45896058e-06
78 79 1 1.65021702e-05 7.58667518e-10
79 83 1 1.81103096e-04 1.04752900e-07
79 84 1 1.81103096e-04 1.04752900e-07
79 85 1 8.88851762e-04 1.07706853e-06
79 88 1 2.05351607e-04 1.18778622e-07
79 91 1 5.29653335e-04 5.30068291e-07
79 92 1 2.51955120e-04 3.79310393e-07
80 82 1 2.05351607e-04 1.18778622e-07
80 87 1 2.05351607e-04 1.18778622e-07
81 82 1 5.29653335e-04 5.30068291e-07
81 89 1 5.29653335e-04 5.30068291e-07
81 93 1 4.01102036e-04 1.43301875e-07
81 94 1 1.83962565e-03 1.45896058e-06
81 96 1 5.29653335e-04 5.30068291e-07
83 86 1 4.92366098e-06 3.61003727e-11
84 86 1 4.92366098e-06 3.61003727e-11
87 90 1 2.05351607e-04 1.18778622e-07
87 95 1 1.65021702e-05 7.58667518e-10
87 97 1 2.05351607e-04 1.18778622e-07
87 98 1 8.88851762e-04 1.07706853e-06
87 100 1 2.51955120e-04 3.79310393e-07
87 103 1 2.51955120e-04 3.79310393e-07
88 89 1 2.05351607e-04 1.18778622e-07
88 93 1 1.39522090e-04 2.58476920e-08
88 94 1 6.97206240e-04 3.12392729e-07
88 96 1 2.05351607e-04 1.18778622e-07
89 92 1 2.51955120e-04 3.79310393e-07
89 97 1 2.05351607e-04 1.18778622e-07
89 98 1 8.88851762e-04 1.07706853e-06
89 107 1 1.65021702e-05 7.58667518e-10
89 108 1 2.51955120e-04 3.79310393e-07
90 96 1 2.05351607e-04 1.18778622e-07
90 101 1 1.39522090e-04 2.58476920e-08
90 102 1 4.01102036e-04 1.43301875e-07
90 104 1 1.23046921e-04 2.27955219e-08
90 105 1 1.23046921e-04 2.27955219e-08
90 106 1 6.97206240e-04 3.12392729e-07
91 93 1 4.01102036e-04 1.43301875e-07
91 94 1 1.83962565e-03 1.45896058e-06
91 96 1 5.29653335e-04 5.30068291e-07
91 101 1 4.01102036e-04 1.43301875e-07
91 102 1 1.08070031e-03 6.97844825e-07
91 104 1 3.53738782e-04 1.26380371e-07
91 105 1 3.53738782e-04 1.26380371e-07
91 106 1 1.83962565e-03 1.45896058e-06
92 99 1 1.65021702e-05 7.58667518e-10
92 101 1 2.05351607e-04 1.18778622e-07
92 102 1 5.29653335e-04 5.30068291e-07
93 95 1 5.58290640e-06 4.09339715e-11
93 97 1 1.39522090e-04 2.58476920e-08
93 98 1 6.97206240e-04 3.12392729e-07
93 100 1 2.05351607e-04 1.18778622e-07
94 97 1 6.97206240e-04 3.12392729e-07
94 98 1 3.11026420e-03 3.00895385e-06
94 100 1 8.88851762e-04 1.07706853e-06
95 96 1 1.65021702e-05 7.58667518e-10
96 103 1 2.51955120e-04 3.79310393e-07
96 108 1 2.51955120e-04 3.79310393e-07
97 99 1 5.58290640e-06 4.09339715e-11
97 101 1 1.39522090e-04 2.58476920e-08
97 102 1 4.01102036e-04 1.43301875e-07
98 101 1 6.97206240e-04 3.12392729e-07
98 102 1 1.83962565e-03 1.45896058e-06
99 100 1 1.65021702e-05 7.58667518e-10
100 104 1 1.81103096e-04 1.04752900e-07
100 105 1 1.81103096e-04 1.04752900e-07
100 106 1 8.88851762e-04 1.07706853e-06
100 109 1 2.05351607e-04 1.18778622e-07
100 112 1 5.29653335e-04 5.30068291e-07
100 113 1 2.51955120e-04 3.79310393e-07
101 103 1 2.05351607e-04 1.18778622e-07
101 108 1 2.05351607e-04 1.18778622e-07
102 103 1 5.29653335e-04 5.30068291e-07
102 110 1 5.29653335e-04 5.30068291e-07
102 114 1 4.01102036e-04 1.43301875e-07
102 115 1 1.83962565e-03 1.45896058e-06
102 117 1 5.29653335e-04 5.30068291e-07
104 107 1 4.92366098e-06 3.61003727e-11
105 107 1 4.92366098e-06 3.61003727e-11
108 111 1 2.05351607e-04 1.18778622e-07
108 116 1 1.65021702e-05 7.58667518e-10
108 118 1 2.05351607e-04 1.18778622e-07
108 119 1 8.88851762e-04 1.07706853e-06
108 121 1 2.51955120e-04 3.79310393e-07
108 124 1 2.51955120e-04 3.79310393e-07
109 110 1 2.05351607e-04 1.18778622e-07
109 114 1 1.39522090e-04 2.58476920e-08
109 115 1 6.97206240e-04 3.12392729e-07
109 117 1 2.05351607e-04 1.18778622e-07
110 113 1 2.51955120e-04 3.79310393e-07
110 118 1 2.05351607e-04 1.18778622e-07
110 119 1 8.88851762e-04 1.07706853e-06
110 128 1 1.65021702e-05 7.58667518e-10
110 129 1 2.51955120e-04 3.79310393e-07
111 117 1 2.05351607e-04 1.18778622e-07
111 122 1 1.39522090e-04 2.58476920e-08
111 123 1 4.01102036e-04 1.43301875e-07
111 125 1 1.23046921e-04 2.27955219e-08
111 126 1 1.23046921e-04 2.27955219e-08
111 127 1 6.97206240e-04 3.12392729e-07
112 114 1 4.01102036e-04 1.43301875e-07
112 115 1 1.83962565e-03 1.45896058e-06
112 117 1 5.29653335e-04 5.30068291e-07
112 122 1 4.01102036e-04 1.43301875e-07
112 123 1 1.08070031e-03 6.97844825e-07
112 125 1 3.53738782e-04 1.26380371e-07
112 126 1 3.53738782e-04 1.26380371e-07
112 127 1 1.83962565e-03 1.45896058e-06
113 120 1 1.65021702e-05 7.58667518e-10
113 122 1 2.05351607e-04 1.18778622e-07
113 123 1 5.29653335e-04 5.30068291e-07
114 116 1 5.58290640e-06 4.09339715e-11
114 118 1 1.39522090e-04 2.58476920e-08
114 119 1 6.97206240e-04 3.12392729e-07
114 121 1 2.05351607e-04 1.18778622e-07
115 118 1 6.97206240e-04 3.12392729e-07
115 119 1 3.11026420e-03 3.00895385e-06
115 121 1 8.88851762e-04 1.07706853e-06
116 117 1 1.65021702e-05 7.58667518e-10
117 124 1 2.51955120e-04 3.79310393e-07
117 129 1 2.51955120e-04 3.79310393e-07
118 120 1 5.58290640e-06 4.09339715e-11
118 122 1 1.39522090e-04 2.58476920e-08
118 123 1 4.01102036e-04 1.43301875e-07
119 122 1 6.97206240e-04 3.12392729e-07
119 123 1 1.83962565e-03 1.45896058e-06
120 121 1 1.65021702e-05 7.58667518e-10
121 125 1 1.81103096e-04 1.04752900e-07
121 126 1 1.81103096e-04 1.04752900e-07
121 127 1 8.88851762e-04 1.07706853e-06
121 130 1 2.05351607e-04 1.18778622e-07
121 133 1 5.29653335e-04 5.30068291e-07
121 134 1 2.51955120e-04 3.79310393e-07
122 124 1 2.05351607e-04 1.18778622e-07
122 129 1 2.05351607e-04 1.18778622e-07
123 124 1 5.29653335e-04 5.30068291e-07
123 131 1 5.29653335e-04 5.30068291e-07
123 135 1 4.01102036e-04 1.43301875e-07
123 136 1 1.83962565e-03 1.45896058e-06
123 138 1 5.29653335e-04 5.30068291e-07
125 128 1 4.92366098e-06 3.61003727e-11
126 128 1 4.92366098e-06 3.61003727e-11
129 132 1 2.05351607e-04 1.18778622e-07
129 137 1 1.65021702e-05 7.58667518e-10
129 139 1 2.05351607e-04 1.18778622e-07
129 140 1 8.88851762e-04 1.07706853e-06
129 142 1 2.51955120e-04 3.79310393e-07
129 145 1 2.51955120e-04 3.79310393e-07
130 131 1 2.05351607e-04 1.18778622e-07
130 135 1 1.39522090e-04 2.58476920e-08
130 136 1 6.97206240e-04 3.12392729e-07
130 138 1 2.05351607e-04 1.18778622e-07
131 134 1 2.51955120e-04 3.79310393e-07
131 139 1 2.05351607e-04 1.18778622e-07
131 140 1 8.88851762e-04 1.07706853e-06
131 149 1 1.65021702e-05 7.58667518e-10
131 150 1 2.51955120e-04 3.79310393e-07
132 138 1 2.05351607e-04 1.18778622e-07
132 143 1 1.39522090e-04 2.58476920e-08
132 144 1 4.01102036e-04 1.43301875e-07
132 146 1 1.23046921e-04 2.27955219e-08
132 147 1 1.23046921e-04 2.27955219e-08
132 148 1 6.97206240e-04 3.12392729e-07
133 135 1 4.01102036e-04 1.43301875e-07
133 136 1 1.83962565e-03 1.45896058e-06
133 138 1 5.29653335e-04 5.30068291e-07
133 143 1 4.01102036e-04 1.43301875e-07
133 144 1 1.08070031e-03 6.97844825e-07
133 146 1 3.53738782e-04 1.26380371e-07
133 147 1 3.53738782e-04 1.26380371e-07
133 148 1 1.83962565e-03 1.45896058e-06
134 141 1 1.65021702e-05 7.58667518e-10
134 143 1 2.05351607e-04 1.18778622e-07
134 144 1 5.29653335e-04 5.30068291e-07
135 137 1 5.58290640e-06 4.09339715e-11
135 139 1 1.39522090e-04 2.58476920e-08
135 140 1 6.97206240e-04 3.12392729e-07
135 142 1 2.05351607e-04 1.18778622e-07
136 139 1 6.97206240e-04 3.12392729e-07
136 140 1 3.11026420e-03 3.00895385e-06
136 142 1 8.88851762e-04 1.07706853e-06
137 138 1 1.65021702e-05 7.58667518e-10
138 145 1 2.51955120e-04 3.79310393e-07
138 150 1 2.51955120e-04 3.79310393e-07
139 141 1 5.58290640e-06 4.09339715e-11
139 143 1 1.39522090e-04 2.58476920e-08
139 144 1 4.01102036e-04 1.43301875e-07
140 143 1 6.97206240e-04 3.12392729e-07
140 144 1 1.83962565e-03 1.45896058e-06
141 142 1 1.65021702e-05 7.58667518e-10
142 146 1 1.81103096e-04 1.04752900e-07
142 147 1 1.81103096e-04 1.04752900e-07
142 148 1 8.88851762e-04 1.07706853e-06
142 151 1 2.05351607e-04 1.18778622e-07
142 154 1 5.29653335e-04 5.30068291e-07
142 155 1 2.51955120e-04 3.79310393e-07
143 145 1 2.05351607e-04 1.18778622e-07
143 150 1 2.05351607e-04 1.18778622e-07
144 145 1 5.29653335e-04 5.30068291e-07
144 152 1 5.29653335e-04 5.30068291e-07
144 156 1 4.01102036e-04 1.43301875e-07
144 157 1 1.83962565e-03 1.45896058e-06
144 159 1 5.29653335e-04 5.30068291e-07
146 149 1 4.92366098e-06 3.61003727e-11
147 149 1 4.92366098e-06 3.61003727e-11
150 153 1 2.05351607e-04 1.18778622e-07
150 158 1 1.65021702e-05 7.58667518e-10
150 160 1 2.05351607e-04 1.18778622e-07
150 161 1 8.88851762e-04 1.07706853e-06
150 163 1 2.51955120e-04 3.79310393e-07
150 166 1 2.51955120e-04 3.79310393e-07
151 152 1 2.05351607e-04 1.18778622e-07
151 156 1 1.39522090e-04 2.58476920e-08
151 157 1 6.97206240e-04 3.12392729e-07
151 159 1 2.05351607e-04 1.18778622e-07
152 155 1 2.51955120e-04 3.79310393e-07
152 160 1 2.05351607e-04 1.18778622e-07
152 161 1 8.88851762e-04 1.07706853e-06
152 170 1 1.65021702e-05 7.58667518e-10
152 171 1 2.51955120e-04 3.79310393e-07
153 159 1 2.05351607e-04 1.18778622e-07
153 164 1 1.39522090e-04 2.58476920e-08
153 165 1 4.01102036e-04 1.43301875e-07
153 167 1 1.23046921e-04 2.27955219e-08
153 168 1 1.23046921e-04 2.27955219e-08
153 169 1 6.97206240e-04 3.12392729e-07
154 156 1 4.01102036e-04 1.43301875e-07
154 157 1 1.83962565e-03 1.45896058e-06
154 159 1 5.29653335e-04 5.30068291e-07
154 164 1 4.01102036e-04 1.43301875e-07
154 165 1 1.08070031e-03 6.97844825e-07
154 167 1 3.53738782e-04 1.26380371e-07
154 168 1 3.53738782e-04 1.26380371e-07
154 169 1 1.83962565e-03 1.45896058e-06
155 162 1 1.65021702e-05 7.58667518e-10
155 164 1 2.05351607e-04 1.18778622e-07
155 165 1 5.29653335e-04 5.30068291e-07
156 158 1 5.58290640e-06 4.09339715e-11
156 160 1 1.39522090e-04 2.58476920e-08
156 161 1 6.97206240e-04 3.12392729e-07
156 163 1 2.05351607e-04 1.18778622e-07
157 160 1 6.97206240e-04 3.12392729e-07
157 161 1 3.11026420e-03 3.00895385e-06
157 163 1 8.88851762e-04 1.07706853e-06
158 159 1 1.65021702e-05 7.58667518e-10
159 166 1 2.51955120e-04 3.79310393e-07
159 171 1 2.51955120e-04 3.79310393e-07
160 162 1 5.58290640e-06 4.09339715e-11
160 164 1 1.39522090e-04 2.58476920e-08
160 165 1 4.01102036e-04 1.43301875e-07
161 164 1 6.97206240e-04 3.12392729e-07
161 165 1 1.83962565e-03 1.45896058e-06
162 163 1 1.65021702e-05 7.58667518e-10
163 167 1 1.81103096e-04 1.04752900e-07
163 168 1 1.81103096e-04 1.04752900e-07
163 169 1 8.88851762e-04 1.07706853e-06
163 172 1 2.05351607e-04 1.18778622e-07
163 175 1 5.29653335e-04 5.30068291e-07
163 176 1 2.51955120e-04 3.79310393e-07
164 166 1 2.05351607e-04 1.18778622e-07
164 171 1 2.05351607e-04 1.18778622e-07
165 166 1 5.29653335e-04 5.30068291e-07
165 173 1 5.29653335e-04 5.30068291e-07
165 177 1 4.01102036e-04 1.43301875e-07
165 178 1 1.83962565e-03 1.45896058e-06
165 180 1 5.29653335e-04 5.30068291e-07
167 170 1 4.92366098e-06 3.61003727e-11
168 170 1 4.92366098e-06 3.61003727e-11
171 174 1 2.05351607e-04 1.18778622e-07
171 179 1 1.65021702e-05 7.58667518e-10
171 181 1 2.05351607e-04 1.18778622e-07
171 182 1 8.88851762e-04 1.07706853e-06
171 184 1 2.51955120e-04 3.79310393e-07
171 187 1 2.51955120e-04 3.79310393e-07
172 173 1 2.05351607e-04 1.18778622e-07
172 177 1 1.39522090e-04 2.58476920e-08
172 178 1 6.97206240e-04 3.12392729e-07
172 180 1 2.05351607e-04 1.18778622e-07
173 176 1 2.51955120e-04 3.79310393e-07
173 181 1 2.05351607e-04 1.18778622e-07
173 182 1 8.88851762e-04 1.07706853e-06
173 191 1 1.65021702e-05 7.58667518e-10
173 192 1 2.51955120e-04 3.79310393e-07
174 180 1 2.05351607e-04 1.18778622e-07
174 185 1 1.39522090e-04 2.58476920e-08
174 186 1 4.01102036e-04 1.43301875e-07
174 188 1 1.23046921e-04 2.27955219e-08
174 189 1 1.23046921e-04 2.27955219e-08
174 190 1 6.97206240e-04 3.12392729e-07
175 177 1 4.01102036e-04 1.43301875e-07
175 178 1 1.83962565e-03 1.45896058e-06
175 180 1 5.29653335e-04 5.30068291e-07
175 185 1 4.01102036e-04 1.43301875e-07
175 186 1 1.08070031e-03 6.97844825e-07
175 188 1 3.53738782e-04 1.26380371e-07
175 189 1 3.53738782e-04 1.26380371e-07
175 190 1 1.83962565e-03 1.45896058e-06
176 183 1 1.65021702e-05 7.58667518e-10
176 185 1 2.05351607e-04 1.18778622e-07
176 186 1 5.29653335e-04 5.30068291e-07
177 179 1 5.58290640e-06 4.09339715e-11
177 181 1 1.39522090e-04 2.58476920e-08
177 182 1 6.97206240e-04 3.12392729e-07
177 184 1 2.05351607e-04 1.18778622e-07
178 181 1 6.97206240e-04 3.12392729e-07
178 182 1 3.11026420e-03 3.00895385e-06
178 184 1 8.88851762e-04 1.07706853e-06
179 180 1 1.65021702e-05 7.58667518e-10
180 187 1 2.51955120e-04 3.79310393e-07
180 192 1 2.51955120e-04 3.79310393e-07
181 183 1 5.58290640e-06 4.09339715e-11
181 185 1 1.39522090e-04 2.58476920e-08
181 186 1 4.01102036e-04 1.43301875e-07
182 185 1 6.97206240e-04 3.12392729e-07
182 186 1 1.83962565e-03 1.45896058e-06
183 184 1 1.65021702e-05 7.58667518e-10
184 188 1 1.81103096e-04 1.04752900e-07
184 189 1 1.81103096e-04 1.04752900e-07
184 190 1 8.88851762e-04 1.07706853e-06
184 193 1 2.05351607e-04 1.18778622e-07
184 196 1 5.29653335e-04 5.30068291e-07
184 197 1 2.51955120e-04 3.79310393e-07
185 187 1 2.05351607e-04 1.18778622e-07
185 192 1 2.05351607e-04 1.18778622e-07
186 187 1 5.29653335e-04 5.30068291e-07
186 194 1 5.29653335e-04 5.30068291e-07
186 198 1 4.01102036e-04 1.43301875e-07
186 199 1 1.83962565e-03 1.45896058e-06
186 201 1 5.29653335e-04 5.30068291e-07
188 191 1 4.92366098e-06 3.61003727e-11
189 191 1 4.92366098e-06 3.61003727e-11
192 195 1 2.05351607e-04 1.18778622e-07
192 200 1 1.65021702e-05 7.58667518e-10
192 202 1 2.05351607e-04 1.18778622e-07
192 203 1 8.88851762e-04 1.07706853e-06
192 205 1 2.51955120e-04 3.79310393e-07
192 208 1 2.51955120e-04 3.79310393e-07
193 194 1 2.05351607e-04 1.18778622e-07
193 198 1 1.39522090e-04 2.58476920e-08
193 199 1 6.97206240e-04 3.12392729e-07
193 201 1 2.05351607e-04 1.18778622e-07
194 197 1 2.51955120e-04 3.79310393e-07
194 202 1 2.05351607e-04 1.18778622e-07
194 203 1 8.88851762e-04 1.07706853e-06
194 212 1 1.65021702e-05 7.58667518e-10
194 213 1 2.51955120e-04 3.79310393e-07
195 201 1 2.05351607e-04 1.18778622e-07
195 206 1 1.39522090e-04 2.58476920e-08
195 207 1 4.01102036e-04 1.43301875e-07
195 209 1 1.23046921e-04 2.27955219e-08
195 210 1 1.23046921e-04 2.27955219e-08
195 211 1 6.97206240e-04 3.12392729e-07
196 198 1 4.01102036e-04 1.43301875e-07
196 199 1 1.83962565e-03 1.45896058e-06
196 201 1 5.29653335e-04 5.30068291e-07
196 206 1 4.01102036e-04 1.43301875e-07
196 207 1 1.08070031e-03 6.97844825e-07
196 209 1 3.53738782e-04 1.26380371e-07
196 210 1 3.53738782e-04 1.26380371e-07
196 211 1 1.83962565e-03 1.45896058e-06
197 204 1 1.65021702e-05 7.58667518e-10
197 206 1 2.05351607e-04 1.18778622e-07
197 207 1 5.29653335e-04 5.30068291e-07
198 200 1 5.58290640e-06 4.09339715e-11
198 202 1 1.39522090e-04 2.58476920e-08
198 203 1 6.97206240e-04 3.12392729e-07
198 205 1 2.05351607e-04 1.18778622e-07
199 202 1 6.97206240e-04 3.12392729e-07
199 203 1 3.11026420e-03 3.00895385e-06
199 205 1 8.88851762e-04 1.07706853e-06
200 201 1 1.65021702e-05 7.58667518e-10
201 208 1 2.51955120e-04 3.79310393e-07
201 213 1 2.51955120e-04 3.79310393e-07
202 204 1 5.58290640e-06 4.09339715e-11
202 206 1 1.39522090e-04 2.58476920e-08
202 207 1 4.01102036e-04 1.43301875e-07
203 206 1 6.97206240e-04 3.12392729e-07
203 207 1 1.83962565e-03 1.45896058e-06
204 205 1 1.65021702e-05 7.58667518e-10
205 209 1 1.81103096e-04 1.04752900e-07
205 210 1 1.81103096e-04 1.04752900e-07
205 211 1 8.88851762e-04 1.07706853e-06
205 214 1 2.05351607e-04 1.18778622e-07
205 217 1 5.29653335e-04 5.30068291e-07
205 218 1 2.51955120e-04 3.79310393e-07
206 208 1 2.05351607e-04 1.18778622e-07
206 213 1 2.05351607e-04 1.18778622e-07
207 208 1 5.29653335e-04 5.30068291e-07
207 215 1 5.29653335e-04 5.30068291e-07
207 219 1 4.01102036e-04 1.43301875e-07
207 220 1 1.83962565e-03 1.45896058e-06
207 222 1 5.29653335e-04 5.30068291e-07
209 212 1 4.92366098e-06 3.61003727e-11
210 212 1 4.92366098e-06 3.61003727e-11
213 216 1 2.05351607e-04 1.18778622e-07
213 221 1 1.65021702e-05 7.58667518e-10
213 223 1 2.05351607e-04 1.18778622e-07
213 224 1 8.88851762e-04 1.07706853e-06
213 226 1 2.51955120e-04 3.79310393e-07
213 229 1 2.51955120e-04 3.79310393e-07
214 215 1 2.05351607e-04 1.18778622e-07
214 219 1 1.39522090e-04 2.58476920e-08
214 220 1 6.97206240e-04 3.12392729e-07
214 222 1 2.05351607e-04 1.18778622e-07
215 218 1 2.51955120e-04 3.79310393e-07
215 223 1 2.05351607e-04 1.18778622e-07
215 224 1 8.88851762e-04 1.07706853e-06
215 233 1 1.65021702e-05 7.58667518e-10
215 234 1 2.51955120e-04 3.79310393e-07
216 222 1 2.05351607e-04 1.18778622e-07
216 227 1 1.39522090e-04 2.58476920e-08
216 228 1 4.01102036e-04 1.43301875e-07
216 230 1 1.23046921e-04 2.27955219e-08
216 231 1 1.23046921e-04 2.27955219e-08
216 232 1 6.97206240e-04 3.12392729e-07
217 219 1 4.01102036e-04 1.43301875e-07
217 220 1 1.83962565e-03 1.45896058e-06
217 222 1 5.29653335e-04 5.30068291e-07
217 227 1 4.01102036e-04 1.43301875e-07
217 228 1 1.08070031e-03 6.97844825e-07
217 230 1 3.53738782e-04 1.26380371e-07
217 231 1 3.53738782e-04 1.26380371e-07
217 232 1 1.83962565e-03 1.45896058e-06
218 225 1 1.65021702e-05 7.58667518e-10
218 227 1 2.05351607e-04 1.18778622e-07
218 228 1 5.29653335e-04 5.30068291e-07
219 221 1 5.58290640e-06 4.09339715e-11
219 223 1 1.39522090e-04 2.58476920e-08
219 224 1 6.97206240e-04 3.12392729e-07
219 226 1 2.05351607e-04 1.18778622e-07
220 223 1 6.97206240e-04 3.12392729e-07
220 224 1 3.11026420e-03 3.00895385e-06
220 226 1 8.88851762e-04 1.07706853e-06
221 222 1 1.65021702e-05 7.58667518e-10
222 229 1 2.51955120e-04 3.79310393e-07
222 234 1 2.51955120e-04 3.79310393e-07
223 225 1 5.58290640e-06 4.09339715e-11
223 227 1 1.39522090e-04 2.58476920e-08
223 228 1 4.01102036e-04 1.43301875e-07
224 227 1 6.97206240e-04 3.12392729e-07
224 228 1 1.83962565e-03 1.45896058e-06
225 226 1 1.65021702e-05 7.58667518e-10
226 230 1 1.81103096e-04 1.04752900e-07
226 231 1 1.81103096e-04 1.04752900e-07
226 232 1 8.88851762e-04 1.07706853e-06
226 235 1 2.05351607e-04 1.18778622e-07
226 238 1 5.29653335e-04 5.30068291e-07
226 239 1 2.51955120e-04 3.79310393e-07
227 229 1 2.05351607e-04 1.18778622e-07
227 234 1 2.05351607e-04 1.18778622e-07
228 229 1 5.29653335e-04 5.30068291e-07
228 236 1 5.29653335e-04 5.30068291e-07
228 240 1 4.01102036e-04 1.43301875e-07
228 241 1 1.83962565e-03 1.45896058e-06
228 243 1 5.29653335e-04 5.30068291e-07
230 233 1 4.92366098e-06 3.61003727e-11
231 233 1 4.92366098e-06 3.61003727e-11
234 237 1 2.05351607e-04 1.18778622e-07
234 242 1 1.65021702e-05 7.58667518e-10
234 244 1 2.05351607e-04 1.18778622e-07
234 245 1 8.88851762e-04 1.07706853e-06
234 247 1 2.51955120e-04 3.79310393e-07
234 251 1 2.51955120e-04 3.79310393e-07
235 236 1 2.05351607e-04 1.18778622e-07
235 240 1 1.39522090e-04 2.58476920e-08
235 241 1 6.97206240e-04 3.12392729e-07
235 243 1 2.05351607e-04 1.18778622e-07
236 239 1 2.51955120e-04 3.79310393e-07
236 244 1 2.05351607e-04 1.18778622e-07
236 245 1 8.88851762e-04 1.07706853e-06
236 250 1 1.65021702e-05 7.58667518e-10
236 255 1 1.65021702e-05 7.58667518e-10
237 243 1 2.05351607e-04 1.18778622e-07
237 248 1 1.39522090e-04 2.58476920e-08
237 249 1 6.97206240e-04 3.12392729e-07
237 252 1 1.23046921e-04 2.27955219e-08
237 253 1 1.23046921e-04 2.27955219e-08
237 254 1 6.97206240e-04 3.12392729e-07
238 240 1 4.01102036e-04 1.43301875e-07
238 241 1 1.83962565e-03 1.45896058e-06
238 243 1 5.29653335e-04 5.30068291e-07
238 248 1 4.01102036e-04 1.43301875e-07
238 249 1 1.83962565e-03 1.45896058e-06
238 252 1 3.53738782e-04 1.26380371e-07
238 253 1 3.53738782e-04 1.26380371e-07
238 254 1 1.83962565e-03 1.45896058e-06
239 246 1 1.65021702e-05 7.58667518e-10
239 248 1 2.05351607e-04 1.18778622e-07
239 249 1 8.88851762e-04 1.07706853e-06
240 242 1 5.58290640e-06 4.09339715e-11
240 244 1 1.39522090e-04 2.58476920e-08
240 245 1 6.97206240e-04 3.12392729e-07
240 247 1 2.05351607e-04 1.18778622e-07
241 244 1 6.97206240e-04 3.12392729e-07
241 245 1 3.11026420e-03 3.00895385e-06
241 247 1 8.88851762e-04 1.07706853e-06
242 243 1 1.65021702e-05 7.58667518e-10
243 250 1 1.65021702e-05 7.58667518e-10
243 251 1 2.51955120e-04 3.79310393e-07
244 246 1 5.58290640e-06 4.09339715e-11
244 248 1 1.39522090e-04 2.58476920e-08
244 249 1 6.97206240e-04 3.12392729e-07
245 248 1 6.97206240e-04 3.12392729e-07
245 249 1 3.11026420e-03 3.00895385e-06
246 247 1 1.65021702e-05 7.58667518e-10
247 252 1 1.81103096e-04 1.04752900e-07
247 253 1 1.81103096e-04 1.04752900e-07
247 254 1 8.88851762e-04 1.07706853e-06
248 250 1 5.58290640e-06 4.09339715e-11
248 251 1 2.05351607e-04 1.18778622e-07
249 251 1 8.88851762e-04 1.07706853e-06
252 255 1 4.92366098e-06 3.61003727e-11
253 255 1 4.92366098e-06 3.61003727e-11

[ constraints ]
1 2 1 1.11100003e-01
3 4 1 9.60000008e-02
5 6 1 1.11100003e-01
8 9 1 1.11100003e-01
10 11 1 9.60000008e-02
12 13 1 1.11100003e-01
14 15 1 9.60000008e-02
16 17 1 1.11100003e-01
19 20 1 1.11100003e-01
19 21 1 1.11100003e-01
22 23 1 9.60000008e-02
24 25 1 1.11100003e-01
26 27 1 1.11100003e-01
29 30 1 1.11100003e-01
31 32 1 9.60000008e-02
33 34 1 1.11100003e-01
35 36 1 9.60000008e-02
37 38 1 1.11100003e-01
40 41 1 1.11100003e-01
40 42 1 1.11100003e-01
43 44 1 9.60000008e-02
45 46 1 1.11100003e-01
47 48 1 1.11100003e-01
50 51 1 1.11100003e-01
52 53 1 9.60000008e-02
54 55 1 1.11100003e-01
56 57 1 9.60000008e-02
58 59 1 1.11100003e-01
61 62 1 1.11100003e-01
61 63 1 1.11100003e-01
64 65 1 9.60000008e-02
66 67 1 1.11100003e-01
68 69 1 1.11100003e-01
71 72 1 1.11100003e-01
73 74 1 9.60000008e-02
75 76 1 1.11100003e-01
77 78 1 9.60000008e-02
79 80 1 1.11100003e-01
82 83 1 1.11100003e-01
82 84 1 1.11100003e-01
85 86 1 9.60000008e-02
87 88 1 1.11100003e-01
89 90 1 1.11100003e-01
92 93 1 1.11100003e-01
94 95 1 9.60000008e-02
96 97 1 1.11100003e-01
98 99 1 9.60000008e-02
100 101 1 1.11100003e-01
103 104 1 1.11100003e-01
103 105 1 1.11100003e-01
106 107 1 9.60000008e-02
108 109 1 1.11100003e-01
110 111 1 1.11100003e-01
113 114 1 1.11100003e-01
115 116 1 9.60000008e-02
117 118 1 1.11100003e-01
119 120 1 9.60000008e-02
121 122 1 1.11100003e-01
124 125 1 1.11100003e-01
124 126 1 1.11100003e-01
127 128 1 9.60000008e-02
129 130 1 1.11100003e-01
131 132 1 1.11100003e-01
134 135 1 1.11100003e-01
136 137 1 9.60000008e-02
138 139 1 1.11100003e-01
140 141 1 9.60000008e-02
142 143 1 1.11100003e-01
145 146 1 1.11100003e-01
145 147 1 1.11100003e-01
148 149 1 9.60000008e-02
150 151 1 1.11100003e-01
152 153 1 1.11100003e-01
155 156 1 1.11100003e-01
157 158 1 9.60000008e-02
159 160 1 1.11100003e-01
161 162 1 9.60000008e-02
163 164 1 1.11100003e-01
166 167 1 1.11100003e-01
166 168 1 1.11100003e-01
169 170 1 9.60000008e-02
171 172 1 1.11100003e-01
173 174 1 1.11100003e-01
176 177 1 1.11100003e-01
178 179 1 9.60000008e-02
180 181 1 1.11100003e-01
182 183 1 9.60000008e-02
184 185 1 1.11100003e-01
187 188 1 1.11100003e-01
187 189 1 1.11100003e-01
190 191 1 9.60000008e-02
192 193 1 1.11100003e-01
194 195 1 1.11100003e-01
197 198 1 1.11100003e-01
199 200 1 9.60000008e-02
201 202 1 1.11100003e-01
203 204 1 9.60000008e-02
205 206 1 1.11100003e-01
208 209 1 1.11100003e-01
208 210 1 1.11100003e-01
211 212 1 9.60000008e-02
213 214 1 1.11100003e-01
215 216 1 1.11100003e-01
218 219 1 1.11100003e-01
220 221 1 9.60000008e-02
222 223 1 1.11100003e-01
224 225 1 9.60000008e-02
226 227 1 1.11100003e-01
229 230 1 1.11100003e-01
229 231 1 1.11100003e-01
232 233 1 9.60000008e-02
234 235 1 1.11100003e-01
236 237 1 1.11100003e-01
239 240 1 1.11100003e-01
241 242 1 9.60000008e-02
243 244 1 1.11100003e-01
245 246 1 9.60000008e-02
247 248 1 1.11100003e-01
249 250 1 9.60000008e-02
251 252 1 1.11100003e-01
251 253 1 1.11100003e-01
254 255 1 9.60000008e-02

[ exclusions ]
1 2 3 4 5 6 7 8 9 10 11 12 13 14 16 19
2 1 3 4 5 7 8 9 10 12
3 1 2 4 5 7 8 9 10 12
4 1 2 3 7 8
5 1 2 3 6 7 8 12 13 14 16 17 18 19 20 21 22 23 24
6 1 5 7 12 16 17 18 19 20 21 22
7 1 2 3 4 5 6 8 9 10 12 16 17 18 19 20 21 22
8 1 2 3 4 5 7 9 10 11 12 13 14 15 16 17 18
9 1 2 3 7 8 10 11 12 13 14 16
10 1 2 3 7 8 9 11 12 13 14 16
11 1 8 9 10 12
12 1 2 3 5 6 7 8 9 10 11 13 14 15 16 17 18 19 24
13 1 5 8 9 10 12 14 15 16 17 18
14 1 5 8 9 10 12 13 15 16 17 18
15 8 12 13 14 16
16 1 5 6 7 8 9 10 12 13 14 15 17 18 19 20 21 22 24 25 28 29
17 5 6 7 8 12 13 14 16 18 19 24
18 5 6 7 8 12 13 14 16 17 19 24 25 26 28 29 30 31 33
19 1 5 6 7 12 16 17 18 20 21 22 23
20 5 6 7 16 19 21 22 23
21 5 6 7 16 19 20 22 23
22 5 6 7 16 19 20 21 23
23 5 19 20 21 22
24 5 12 16 17 18 25 26 27 28 29 30 31 32 33 34 35 37 40
25 16 18 24 26 28 29 30 31 33
26 18 24 25 27 28 29 33 34 35 37 38 39 40 41 42 43 44 45
27 24 26 28 33 37 38 39 40 41 42 43
28 16 18 24 25 26 27 29 30 31 33 37 38 39 40 41 42 43
29 16 18 24 25 26 28 30 31 32 33 34 35 36 37 38 39
30 18 24 25 28 29 31 32 33 34 35 37
31 18 24 25 28 29 30 32 33 34 35 37
32 24 29 30 31 33
33 18 24 25 26 27 28 29 30 31 32 34 35 36 37 38 39 40 45
34 24 26 29 30 31 33 35 36 37 38 39
35 24 26 29 30 31 33 34 36 37 38 39
36 29 33 34 35 37
37 24 26 27 28 29 30 31 33 34 35 36 38 39 40 41 42 43 45 46 49 50
38 26 27 28 29 33 34 35 37 39 40 45
39 26 27 28 29 33 34 35 37 38 40 45 46 47 49 50 51 52 54
40 24 26 27 28 33 37 38 39 41 42 43 44
41 26 27 28 37 40 42 43 44
42 26 27 28 37 40 41 43 44
43 26 27 28 37 40 41 42 44
44 26 40 41 42 43
45 26 33 37 38 39 46 47 48 49 50 51 52 53 54 55 56 58 61
46 37 39 45 47 49 50 51 52 54
47 39 45 46 48 49 50 54 55 56 58 59 60 61 62 63 64 65 66
48 45 47 49 54 58 59 60 61 62 63 64
49 37 39 45 46 47 48 50 51 52 54 58 59 60 61 62 63 64
50 37 39 45 46 47 49 51 52 53 54 55 56 57 58 59 60
51 39 45 46 49 50 52 53 54 55 56 58
52 39 45 46 49 50 51 53 54 55 56 58
53 45 50 51 52 54
54 39 45 46 47 48 49 50 51 52 53 55 56 57 58 59 60 61 66
55 45 47 50 51 52 54 56 57 58 59 60
56 45 47 50 51 52 54 55 57 58 59 60
57 50 54 55 56 58
58 45 47 48 49 50 51 52 54 55 56 57 59 60 61 62 63 64 66 67 70 71
59 47 48 49 50 54 55 56 58 60 61 66
60 47 48 49 50 54 55 56 58 59 61 66 67 68 70 71 72 73 75
61 45 47 48 49 54 58 59 60 62 63 64 65
62 47 48 49 58 61 63 64 65
63 47 48 49 58 61 62 64 65
64 47 48 49 58 61 62 63 65
65 47 61 62 63 64
66 47 54 58 59 60 67 68 69 70 71 72 73 74 75 76 77 79 82
67 58 60 66 68 70 71 72 73 75
68 60 66 67 69 70 71 75 76 77 79 80 81 82 83 84 85 86 87
69 66 68 70 75 79 80 81 82 83 84 85
70 58 60 66 67 68 69 71 72 73 75 79 80 81 82 83 84 85
71 58 60 66 67 68 70 72 73 74 75 76 77 78 79 80 81
72 60 66 67 70 71 73 74 75 76 77 79
73 60 66 67 70 71 72 74 75 76 77 79
74 66 71 72 73 75
75 60 66 67 68 69 70 71 72 73 74 76 77 78 79 80 81 82 87
76 66 68 71 72 73 75 77 78 79 80 81
77 66 68 71 72 73 75 76 78 79 80 81
78 71 75 76 77 79
79 66 68 69 70 71 72 73 75 76 77 78 80 81 82 83 84 85 87 88 91 92
80 68 69 70 71 75 76 77 79 81 82 87
81 68 69 70 71 75 76 77 79 80 82 87 88 89 91 92 93 94 96
82 66 68 69 70 75 79 80 81 83 84 85 86
83 68 69 70 79 82 84 85 86
84 68 69 70 79 82 83 85 86
85 68 69 70 79 82 83 84 86
86 68 82 83 84 85
87 68 75 79 80 81 88 89 90 91 92 93 94 95 96 97 98 100 103
88 79 81 87 89 91 92 93 94 96
89 81 87 88 90 91 92 96 97 98 100 101 102 103 104 105 106 107 108
90 87 89 91 96 100 101 102 103 104 105 106
91 79 81 87 88 89 90 92 93 94 96 100 101 102 103 104 105 106
92 79 81 87 88 89 91 93 94 95 96 97 98 99 100 101 102
93 81 87 88 91 92 94 95 96 97 98 100
94 81 87 88 91 92 93 95 96 97 98 100
95 87 92 93 94 96
96 81 87 88 89 90 91 92 93 94 95 97 98 99 100 101 102 103 108
97 87 89 92 93 94 96 98 99 100 101 102
98 87 89 92 93 94 96 97 99 100 101 102
99 92 96 97 98 100
100 87 89 90 91 92 93 94 96 97 98 99 101 102 103 104 105 106 108 109 112 113
101 89 90 91 92 96 97 98 100 102 103 108
102 89 90 91 92 96 97 98 100 101 103 108 109 110 112 113 114 115 117
103 87 89 90 91 96 100 101 102 104 105 106 107
104 89 90 91 100 103 105 106 107
105 89 90 91 100 103 104 106 107
106 89 90 91 100 103 104 105 107
107 89 103 104 105 106
108 89 96 100 101 102 109 110 111 112 113 114 115 116 117 118 119 121 124
109 100 102 108 110 112 113 114 115 117
110 102 108 109 111 112 113 117 118 119 121 122 123 124 125 126 127 128 129
111 108 110 112 117 121 122 123 124 125 126 127
112 100 102 108 109 110 111 113 114 115 117 121 122 123 124 125 126 127
113 100 102 108 109 110 112 114 115 116 117 118 119 120 121 122 123
114 102 108 109 112 113 115 116 117 118 119 121
115 102 108 109 112 113 114 116 117 118 119 121
116 108 113 114 115 117
117 102 108 109 110 111 112 113 114 115 116 118 119 120 121 122 123 124 129
118 108 110 113 114 115 117 119 120 121 122 123
119 108 110 113 114 115 117 118 120 121 122 123
120 113 117 118 119 121
121 108 110 111 112 113 114 115 117 118 119 120 122 123 124 125 126 127 129 130 133 134
122 110 111 112 113 117 118 119 121 123 124 129
123 110 111 112 113 117 118 119 121 122 124 129 130 131 133 134 135 136 138
124 108 110 111 112 117 121 122 123 125 126 127 128
125 110 111 112 121 124 126 127 128
126 110 111 112 121 124 125 127 128
127 110 111 112 121 124 125 126 128
128 110 124 125 126 127
129 110 117 121 122 123 130 131 132 133 134 135 136 137 138 139 140 142 145
130 121 123 129 131 133 134 135 136 138
131 123 129 130 132 133 134 138 139 140 142 143 144 145 146 147 148 149 150
132 129 131 133 138 142 143 144 145 146 147 148
133 121 123 129 130 131 132 134 135 136 138 142 143 144 145 146 147 148
134 121 123 129 130 131 133 135 136 137 138 139 140 141 142 143 144
135 123 129 130 133 134 136 137 138 139 140 142
136 123 129 130 133 134 135 137 138 139 140 142
137 129 134 135 136 138
138 123 129 130 131 132 133 134 135 136 137 139 140 141 142 143 144 145 150
139 129 131 134 135 136 138 140 141 142 143 144
140 129 131 134 135 136 138 139 141 142 143 144
141 134 138 139 140 142
142 129 131 132 133 134 135 136 138 139 140 141 143 144 145 146 147 148 150 151 154 155
143 131 132 133 134 138 139 140 142 144 145 150
144 131 132 133 134 138 139 140 142 143 145 150 151 152 154 155 156 157 159
145 129 131 132 133 138 142 143 144 146 147 148 149
146 131 132 133 142 145 147 148 149
147 131 132 133 142 145 146 148 149
148 131 132 133 142 145 146 147 149
149 131 145 146 147 148
150 131 138 142 143 144 151 152 153 154 155 156 157 158 159 160 161 163 166
151 142 144 150 152 154 155 156 157 159
152 144 150 151 153 154 155 159 160 161 163 164 165 166 167 168 169 170 171
153 150 152 154 159 163 164 165 166 167 168 169
154 142 144 150 151 152 153 155 156 157 159 163 164 165 166 167 168 169
155 142 144 150 151 152 154 156 157 158 159 160 161 162 163 164 165
156 144 150 151 154 155 157 158 159 160 161 163
157 144 150 151 154 155 156 158 159 160 161 163
158 150 155 156 157 159
159 144 150 151 152 153 154 155 156 157 158 160 161 162 163 164 165 166 171
160 150 152 155 156 157 159 161 162 163 164 165
161 150 152 155 156 157 159 160 162 163 164 165
162 155 159 160 161 163
163 150 152 153 154 155 156 157 159 160 161 162 164 165 166 167 168 169 171 172 175 176
164 152 153 154 155 159 160 161 163 165 166 171
165 152 153 154 155 159 160 161 163 164 166 171 172 173 175 176 177 178 180
166 150 152 153 154 159 163 164 165 167 168 169 170
167 152 153 154 163 166 168 169 170
168 152 153 154 163 166 167 169 170
169 152 153 154 163 166 167 168 170
170 152 166 167 168 169
171 152 159 163 164 165 172 173 174 175 176 177 178 179 180 181 182 184 187
172 163 165 171 173 175 176 177 178 180
173 165 171 172 174 175 176 180 181 182 184 185 186 187 188 189 190 191 192
174 171 173 175 180 184 185 186 187 188 189 190
175 163 165 171 172 173 174 176 177 178 180 184 185 186 187 188 189 190
176 163 165 171 172 173 175 177 178 179 180 181 182 183 184 185 186
177 165 171 172 175 176 178 179 180 181 182 184
178 165 171 172 175 176 177 179 180 181 182 184
179 171 176 177 178 180
180 165 171 172 173 174 175 176 177 178 179 181 182 183 184 185 186 187 192
181 171 173 176 177 178 180 182 183 184 185 186
182 171 173 176 177 178 180 181 183 184 185 186
183 176 180 181 182 184
184 171 173 174 175 176 177 178 180 181 182 183 185 186 187 188 189 190 192 193 196 197
185 173 174 175 176 180 181 182 184 186 187 192
186 173 174 175 176 180 181 182 184 185 187 192 193 194 196 197 198 199 201
187 171 173 174 175 180 184 185 186 188 189 190 191
188 173 174 175 184 187 189 190 191
189 173 174 175 184 187 188 190 191
190 173 174 175 184 187 188 189 191
191 173 187 188 189 190
192 173 180 184 185 186 193 194 195 196 197 198 199 200 201 202 203 205 208
193 184 186 192 194 196 197 198 199 201
194 186 192 193 195 196 197 201 202 203 205 206 207 208 209 210 211 212 213
195 192 194 196 201 205 206 207 208 209 210 211
196 184 186 192 193 194 195 197 198 199 201 205 206 207 208 209 210 211
197 184 186 192 193 194 196 198 199 200 201 202 203 204 205 206 207
198 186 192 193 196 197 199 200 201 202 203 205
199 186 192 193 196 197 198 200 201 202 203 205
200 192 197 198 199 201
201 186 192 193 194 195 196 197 198 199 200 202 203 204 205 206 207 208 213
202 192 194 197 198 199 201 203 204 205 206 207
203 192 194 197 198 199 201 202 204 205 206 207
204 197 201 202 203 205
205 192 194 195 196 197 198 199 201 202 203 204 206 207 208 209 210 211 213 214 217 218
206 194 195 196 197 201 202 203 205 207 208 213
207 194 195 196 197 201 202 203 205 206 208 213 214 215 217 218 219 220 222
208 192 194 195 196 201 205 206 207 209 210 211 212
209 194 195 196 205 208 210 211 212
210 194 195 196 205 208 209 211 212
211 194 195 196 205 208 209 210 212
212 194 208 209 210 211
213 194 201 205 206 207 214 215 216 217 218 219 220 221 222 223 224 226 229
214 205 207 213 215 217 218 219 220 222
215 207 213 214 216 217 218 222 223 224 226 227 228 229 230 231 232 233 234
216 213 215 217 222 226 227 228 229 230 231 232
217 205 207 213 214 215 216 218 219 220 222 226 227 228 229 230 231 232
218 205 207 213 214 215 217 219 220 221 222 223 224 225 226 227 228
219 207 213 214 217 218 220 221 222 223 224 226
220 207 213 214 217 218 219 221 222 223 224 226
221 213 218 219 220 222
222 207 213 214 215 216 217 218 219 220 221 223 224 225 226 227 228 229 234
223 213 215 218 219 220 222 224 225 226 227 228
224 213 215 218 219 220 222 223 225 226 227 228
225 218 222 223 224 226
226 213 215 216 217 218 219 220 222 223 224 225 227 228 229 230 231 232 234 235 238 239
227 215 216 217 218 222 223 224 226 228 229 234
228 215 216 217 218 222 223 224 226 227 229 234 235 236 238 239 240 241 243
229 213 215 216 217 222 226 227 228 230 231 232 233
230 215 216 217 226 229 231 232 233
231 215 216 217 226 229 230 232 233
232 215 216 217 226 229 230 231 233
233 215 229 230 231 232
234 215 222 226 227 228 235 236 237 238 239 240 241 242 243 244 245 247 251
235 226 228 234 236 238 239 240 241 243
236 228 234 235 237 238 239 243 244 245 247 248 249 250 251 252 253 254 255
237 234 236 238 243 247 248 249 251 252 253 254
238 226 228 234 235 236 237 239 240 241 243 247 248 249 251 252 253 254
239 226 228 234 235 236 238 240 241 242 243 244 245 246 247 248 249
240 228 234 235 238 239 241 242 243 244 245 247
241 228 234 235 238 239 240 242 243 244 245 247
242 234 239 240 241 243
243 228 234 235 236 237 238 239 240 241 242 244 245 246 247 248 249 250 251
244 234 236 239 240 241 243 245 246 247 248 249
245 234 236 239 240 241 243 244 246 247 248 249
246 239 243 244 245 247
247 234 236 237 238 239 240 241 243 244 245 246 248 249 250 251 252 253 254
248 236 237 238 239 243 244 245 247 249 250 251
249 236 237 238 239 243 244 245 247 248 250 251
250 236 243 247 248 249
251 234 236 237 238 243 247 248 249 252 253 254 255
252 236 237 238 247 251 253 254 255
253 236 237 238 247 251 252 254 255
254 236 237 238 247 251 252 253 255
255 236 251 252 253 254

[ moleculetype ]
TIP3 3

[ atoms ]
     1 OT          1 TIP3   OH2         1  -0.834000   15.99940
     2 HT          1 TIP3   H1          2   0.417000    1.00800
     3 HT          1 TIP3   H2          3   0.417000    1.00800

[ settles ]
1 1 9.57200006e-02 1.51390001e-01

[ exclusions ]
1 2 3
2 1 3
3 1 2

[ system ]
rebuilt from tpr

[ molecules ]
CARB 1
TIP3 11217
